
     Program PWSCF v.6.0 (svn rev. 13079) starts on 26Jan2017 at 10:28:13 

     This program is part of the open-source Quantum ESPRESSO suite
     for quantum simulation of materials; please cite
         "P. Giannozzi et al., J. Phys.:Condens. Matter 21 395502 (2009);
          URL http://www.quantum-espresso.org", 
     in publications or presentations arising from this work. More details at
     http://www.quantum-espresso.org/quote

     Parallel version (MPI), running on     2 processors
     R & G space division:  proc/nbgrp/npool/nimage =       2
     Waiting for input...
     Reading input from standard input
     Message from routine read_cards :
     DEPRECATED: no units specified in ATOMIC_POSITIONS card
     Message from routine read_cards :
     ATOMIC_POSITIONS: units set to alat

     Current dimensions of program PWSCF are:
     Max number of different atomic species (ntypx) = 10
     Max number of k-points (npk) =  40000
     Max angular momentum in pseudopotentials (lmaxx) =  3

     Atomic positions and unit cell read from directory:
     output/ag.save/


     Subspace diagonalization in iterative solution of the eigenvalue problem:
     a serial algorithm will be used


     Parallelization info
     --------------------
     sticks:   dense  smooth     PW     G-vecs:    dense   smooth      PW
     Min         174     174     60                 2055     2055     469
     Max         175     175     61                 2056     2056     472
     Sum         349     349    121                 4111     4111     941



     bravais-lattice index     =            2
     lattice parameter (alat)  =       7.8664  a.u.
     unit-cell volume          =     121.6946 (a.u.)^3
     number of atoms/cell      =            1
     number of atomic types    =            1
     number of electrons       =        11.00
     number of Kohn-Sham states=           10
     kinetic-energy cutoff     =      40.0000  Ry
     charge density cutoff     =     160.0000  Ry
     Exchange-correlation      =  SLA  PW   PBE  PBE ( 1  4  3  4 0 0)

     celldm(1)=   7.866420  celldm(2)=   0.000000  celldm(3)=   0.000000
     celldm(4)=   0.000000  celldm(5)=   0.000000  celldm(6)=   0.000000

     crystal axes: (cart. coord. in units of alat)
               a(1) = (  -0.500000   0.000000   0.500000 )  
               a(2) = (   0.000000   0.500000   0.500000 )  
               a(3) = (  -0.500000   0.500000   0.000000 )  

     reciprocal axes: (cart. coord. in units 2 pi/alat)
               b(1) = ( -1.000000 -1.000000  1.000000 )  
               b(2) = (  1.000000  1.000000  1.000000 )  
               b(3) = ( -1.000000  1.000000 -1.000000 )  


     PseudoPot. # 1 for Ag read from file:
     pseudo/Ag.pbe-d-rrkjus.UPF
     MD5 check sum: a803b9d7d63641d413c5e0e7f96cb77f
     Pseudo is Ultrasoft, Zval = 11.0
     Generated by new atomic code, or converted to UPF format
     Using radial grid of 1495 points,  3 beta functions with: 
                l(1) =   1
                l(2) =   2
                l(3) =   2
     Q(r) pseudized with 0 coefficients 


     atomic species   valence    mass     pseudopotential
        Ag            11.00   107.86820     Ag( 1.00)

     48 Sym. Ops., with inversion, found



   Cartesian axes

     site n.     atom                  positions (alat units)
         1           Ag  tau(   1) = (   0.0000000   0.0000000   0.0000000  )

     number of k points=   210  Marzari-Vanderbilt smearing, width (Ry)=  0.0500

     Number of k-points >= 100: set verbosity='high' to print them.

     Dense  grid:     4111 G-vectors     FFT dimensions: (  24,  24,  24)

     Estimated max dynamical RAM per process >       1.17Mb

     Estimated total allocated dynamical RAM >       2.34Mb

     The potential is recalculated from file :
     output/ag.save/charge-density.dat

     Starting wfc are    6 randomized atomic wfcs +    4 random wfc

     Band Structure Calculation
     Davidson diagonalization with overlap

     ethr =  9.09E-09,  avg # of iterations = 12.5

     total cpu time spent up to now is       20.9 secs

     End of band structure calculation

     Number of k-points >= 100: set verbosity='high' to print the bands.

     Writing output data file ag.save

     init_run     :      0.40s CPU      0.40s WALL (       1 calls)
     electrons    :     12.42s CPU     20.23s WALL (       1 calls)

     Called by init_run:
     wfcinit      :      0.00s CPU      0.00s WALL (       1 calls)
     potinit      :      0.01s CPU      0.01s WALL (       1 calls)

     Called by electrons:
     c_bands      :     12.42s CPU     20.23s WALL (       1 calls)
     v_of_rho     :      0.01s CPU      0.01s WALL (       1 calls)
     newd         :      0.00s CPU      0.01s WALL (       1 calls)

     Called by c_bands:
     init_us_2    :      0.04s CPU      0.04s WALL (     210 calls)
     cegterg      :     11.14s CPU     18.13s WALL (     214 calls)

     Called by sum_band:

     Called by *egterg:
     h_psi        :      7.02s CPU      8.74s WALL (    3051 calls)
     s_psi        :      0.08s CPU      0.12s WALL (    3051 calls)
     g_psi        :      0.02s CPU      0.05s WALL (    2627 calls)
     cdiaghg      :      4.45s CPU     10.12s WALL (    2837 calls)

     Called by h_psi:
     h_psi:pot    :      6.99s CPU      8.71s WALL (    3051 calls)
     h_psi:calbec :      0.23s CPU      0.22s WALL (    3051 calls)
     vloc_psi     :      6.64s CPU      8.34s WALL (    3051 calls)
     add_vuspsi   :      0.10s CPU      0.14s WALL (    3051 calls)

     General routines
     calbec       :      0.23s CPU      0.21s WALL (    3051 calls)
     fft          :      0.02s CPU      0.01s WALL (      11 calls)
     fftw         :      6.15s CPU      7.74s WALL (   37022 calls)
     davcio       :      0.01s CPU      0.01s WALL (     210 calls)

     Parallel routines
     fft_scatter  :      0.83s CPU      1.16s WALL (   37033 calls)

     PWSCF        :    13.38s CPU        21.27s WALL


   This run was terminated on:  10:28:34  26Jan2017            

=------------------------------------------------------------------------------=
   JOB DONE.
=------------------------------------------------------------------------------=
