
     Program PWSCF v.6.0 (svn rev. 13079) starts on 25Jan2017 at 22:14: 2 

     This program is part of the open-source Quantum ESPRESSO suite
     for quantum simulation of materials; please cite
         "P. Giannozzi et al., J. Phys.:Condens. Matter 21 395502 (2009);
          URL http://www.quantum-espresso.org", 
     in publications or presentations arising from this work. More details at
     http://www.quantum-espresso.org/quote

     Parallel version (MPI), running on     2 processors
     R & G space division:  proc/nbgrp/npool/nimage =       2
     Waiting for input...
     Reading input from standard input
     Message from routine read_cards :
     DEPRECATED: no units specified in ATOMIC_POSITIONS card
     Message from routine read_cards :
     ATOMIC_POSITIONS: units set to alat

     Current dimensions of program PWSCF are:
     Max number of different atomic species (ntypx) = 10
     Max number of k-points (npk) =  40000
     Max angular momentum in pseudopotentials (lmaxx) =  3

     Subspace diagonalization in iterative solution of the eigenvalue problem:
     a serial algorithm will be used


     Parallelization info
     --------------------
     sticks:   dense  smooth     PW     G-vecs:    dense   smooth      PW
     Min         135     135     45                 1487     1487     304
     Max         136     136     46                 1488     1488     305
     Sum         271     271     91                 2975     2975     609



     bravais-lattice index     =            2
     lattice parameter (alat)  =       8.1258  a.u.
     unit-cell volume          =     134.1350 (a.u.)^3
     number of atoms/cell      =            1
     number of atomic types    =            1
     number of electrons       =        11.00
     number of Kohn-Sham states=           10
     kinetic-energy cutoff     =      30.0000  Ry
     charge density cutoff     =     120.0000  Ry
     convergence threshold     =      1.0E-07
     mixing beta               =       0.7000
     number of iterations used =            8  plain     mixing
     Exchange-correlation      =  SLA  PW   PBE  PBE ( 1  4  3  4 0 0)
     nstep                     =           50


     celldm(1)=   8.125822  celldm(2)=   0.000000  celldm(3)=   0.000000
     celldm(4)=   0.000000  celldm(5)=   0.000000  celldm(6)=   0.000000

     crystal axes: (cart. coord. in units of alat)
               a(1) = (  -0.500000   0.000000   0.500000 )  
               a(2) = (   0.000000   0.500000   0.500000 )  
               a(3) = (  -0.500000   0.500000   0.000000 )  

     reciprocal axes: (cart. coord. in units 2 pi/alat)
               b(1) = ( -1.000000 -1.000000  1.000000 )  
               b(2) = (  1.000000  1.000000  1.000000 )  
               b(3) = ( -1.000000  1.000000 -1.000000 )  


     PseudoPot. # 1 for Ag read from file:
     pseudo/Ag.pbe-d-rrkjus.UPF
     MD5 check sum: a803b9d7d63641d413c5e0e7f96cb77f
     Pseudo is Ultrasoft, Zval = 11.0
     Generated by new atomic code, or converted to UPF format
     Using radial grid of 1495 points,  3 beta functions with: 
                l(1) =   1
                l(2) =   2
                l(3) =   2
     Q(r) pseudized with 0 coefficients 


     atomic species   valence    mass     pseudopotential
        Ag            11.00   107.86820     Ag( 1.00)

     48 Sym. Ops., with inversion, found



   Cartesian axes

     site n.     atom                  positions (alat units)
         1           Ag  tau(   1) = (   0.0000000   0.0000000   0.0000000  )

     number of k points=    29  Marzari-Vanderbilt smearing, width (Ry)=  0.0500
                       cart. coord. in units 2pi/alat
        k(    1) = (   0.0000000   0.0000000   0.0000000), wk =   0.0039062
        k(    2) = (  -0.1250000   0.1250000  -0.1250000), wk =   0.0312500
        k(    3) = (  -0.2500000   0.2500000  -0.2500000), wk =   0.0312500
        k(    4) = (  -0.3750000   0.3750000  -0.3750000), wk =   0.0312500
        k(    5) = (   0.5000000  -0.5000000   0.5000000), wk =   0.0156250
        k(    6) = (   0.0000000   0.2500000   0.0000000), wk =   0.0234375
        k(    7) = (  -0.1250000   0.3750000  -0.1250000), wk =   0.0937500
        k(    8) = (  -0.2500000   0.5000000  -0.2500000), wk =   0.0937500
        k(    9) = (   0.6250000  -0.3750000   0.6250000), wk =   0.0937500
        k(   10) = (   0.5000000  -0.2500000   0.5000000), wk =   0.0937500
        k(   11) = (   0.3750000  -0.1250000   0.3750000), wk =   0.0937500
        k(   12) = (   0.2500000   0.0000000   0.2500000), wk =   0.0468750
        k(   13) = (   0.0000000   0.5000000   0.0000000), wk =   0.0234375
        k(   14) = (  -0.1250000   0.6250000  -0.1250000), wk =   0.0937500
        k(   15) = (   0.7500000  -0.2500000   0.7500000), wk =   0.0937500
        k(   16) = (   0.6250000  -0.1250000   0.6250000), wk =   0.0937500
        k(   17) = (   0.5000000   0.0000000   0.5000000), wk =   0.0468750
        k(   18) = (   0.0000000   0.7500000   0.0000000), wk =   0.0234375
        k(   19) = (   0.8750000  -0.1250000   0.8750000), wk =   0.0937500
        k(   20) = (   0.7500000   0.0000000   0.7500000), wk =   0.0468750
        k(   21) = (   0.0000000  -1.0000000   0.0000000), wk =   0.0117188
        k(   22) = (  -0.2500000   0.5000000   0.0000000), wk =   0.0937500
        k(   23) = (   0.6250000  -0.3750000   0.8750000), wk =   0.1875000
        k(   24) = (   0.5000000  -0.2500000   0.7500000), wk =   0.0937500
        k(   25) = (   0.7500000  -0.2500000   1.0000000), wk =   0.0937500
        k(   26) = (   0.6250000  -0.1250000   0.8750000), wk =   0.1875000
        k(   27) = (   0.5000000   0.0000000   0.7500000), wk =   0.0937500
        k(   28) = (  -0.2500000  -1.0000000   0.0000000), wk =   0.0468750
        k(   29) = (  -0.5000000  -1.0000000   0.0000000), wk =   0.0234375

     Dense  grid:     2975 G-vectors     FFT dimensions: (  24,  24,  24)

     Estimated max dynamical RAM per process >       2.24Mb

     Estimated total allocated dynamical RAM >       4.47Mb

     Initial potential from superposition of free atoms
     Check: negative starting charge=   -0.000115

     starting charge   10.99957, renormalised to   11.00000

     negative rho (up, down):  1.155E-04 0.000E+00
     Starting wfc are    6 randomized atomic wfcs +    4 random wfc

     total cpu time spent up to now is        0.9 secs

     per-process dynamical memory:     7.9 Mb

     Self-consistent Calculation

     iteration #  1     ecut=    30.00 Ry     beta=0.70
     Davidson diagonalization with overlap
     ethr =  1.00E-02,  avg # of iterations =  4.6

     Threshold (ethr) on eigenvalues was too large:
     Diagonalizing with lowered threshold

     Davidson diagonalization with overlap
     ethr =  4.95E-04,  avg # of iterations =  1.2

     negative rho (up, down):  1.202E-04 0.000E+00

     total cpu time spent up to now is        2.6 secs

     total energy              =     -73.61276058 Ry
     Harris-Foulkes estimate   =     -73.65005989 Ry
     estimated scf accuracy    <       0.05447007 Ry

     iteration #  2     ecut=    30.00 Ry     beta=0.70
     Davidson diagonalization with overlap
     ethr =  4.95E-04,  avg # of iterations =  2.0

     negative rho (up, down):  1.258E-04 0.000E+00

     total cpu time spent up to now is        3.5 secs

     total energy              =     -73.62912131 Ry
     Harris-Foulkes estimate   =     -73.64448843 Ry
     estimated scf accuracy    <       0.02960498 Ry

     iteration #  3     ecut=    30.00 Ry     beta=0.70
     Davidson diagonalization with overlap
     ethr =  2.69E-04,  avg # of iterations =  1.5

     negative rho (up, down):  1.288E-04 0.000E+00

     total cpu time spent up to now is        4.2 secs

     total energy              =     -73.63460873 Ry
     Harris-Foulkes estimate   =     -73.63460205 Ry
     estimated scf accuracy    <       0.00004043 Ry

     iteration #  4     ecut=    30.00 Ry     beta=0.70
     Davidson diagonalization with overlap
     ethr =  3.68E-07,  avg # of iterations =  3.0

     negative rho (up, down):  1.292E-04 0.000E+00

     total cpu time spent up to now is        5.1 secs

     total energy              =     -73.63464514 Ry
     Harris-Foulkes estimate   =     -73.63464694 Ry
     estimated scf accuracy    <       0.00000832 Ry

     iteration #  5     ecut=    30.00 Ry     beta=0.70
     Davidson diagonalization with overlap
     ethr =  7.57E-08,  avg # of iterations =  1.0

     negative rho (up, down):  1.291E-04 0.000E+00

     total cpu time spent up to now is        5.8 secs

     total energy              =     -73.63464557 Ry
     Harris-Foulkes estimate   =     -73.63464574 Ry
     estimated scf accuracy    <       0.00000034 Ry

     iteration #  6     ecut=    30.00 Ry     beta=0.70
     Davidson diagonalization with overlap
     ethr =  3.06E-09,  avg # of iterations =  2.0

     negative rho (up, down):  1.291E-04 0.000E+00

     total cpu time spent up to now is        6.6 secs

     End of self-consistent calculation

          k = 0.0000 0.0000 0.0000 (   339 PWs)   bands (ev):

     3.9112   6.3160   6.3160   6.3160   7.0912   7.0912  27.6436  29.5932
    29.5932  29.5932

          k =-0.1250 0.1250-0.1250 (   362 PWs)   bands (ev):

     4.3292   6.2579   6.4082   6.4082   7.0684   7.0684  25.5243  28.0834
    29.2140  29.2140

          k =-0.2500 0.2500-0.2500 (   359 PWs)   bands (ev):

     5.1185   6.4705   6.4705   6.6153   7.1983   7.1983  20.7348  27.6858
    28.4592  28.4592

          k =-0.3750 0.3750-0.3750 (   362 PWs)   bands (ev):

     5.1670   6.3610   6.3610   7.5352   7.5352   8.5780  16.3048  26.9030
    27.6811  27.6811

          k = 0.5000-0.5000 0.5000 (   368 PWs)   bands (ev):

     5.0969   6.2984   6.2984   7.7034   7.7034  10.6540  13.4605  26.5528
    27.3215  27.3215

          k = 0.0000 0.2500 0.0000 (   359 PWs)   bands (ev):

     4.4709   6.1360   6.4992   6.4992   6.9309   7.1733  27.1755  27.2977
    27.2977  27.9430

          k =-0.1250 0.3750-0.1250 (   366 PWs)   bands (ev):

     5.2171   6.0396   6.5412   6.6453   7.1545   7.3076  22.6082  25.9682
    26.9603  28.7129

          k =-0.2500 0.5000-0.2500 (   366 PWs)   bands (ev):

     5.3992   6.3206   6.5871   6.6331   7.5922   8.5659  17.9946  25.3459
    26.0279  26.8307

          k = 0.6250-0.3750 0.6250 (   377 PWs)   bands (ev):

     5.3052   6.1930   6.4826   7.1498   7.7153  11.0355  14.1517  24.4191
    25.6391  26.5524

          k = 0.5000-0.2500 0.5000 (   374 PWs)   bands (ev):

     5.3545   6.2322   6.4784   7.1755   7.4935  10.2136  15.3025  23.5612
    27.0054  27.0300

          k = 0.3750-0.1250 0.3750 (   370 PWs)   bands (ev):

     5.4859   6.3040   6.5916   6.6287   7.0666   8.1801  19.5057  23.5612
    28.3624  29.3481

          k = 0.2500 0.0000 0.2500 (   367 PWs)   bands (ev):

     4.9485   6.1191   6.5371   6.5569   6.9050   7.3215  24.1596  24.3379
    29.7093  30.6773

          k = 0.0000 0.5000 0.0000 (   351 PWs)   bands (ev):

     5.4698   5.7204   6.9933   6.9933   7.2293   7.3757  24.1027  24.1027
    25.4461  26.5217

          k =-0.1250 0.6250-0.1250 (   372 PWs)   bands (ev):

     5.4949   5.6936   6.8917   7.0747   7.6177   8.8830  20.2320  22.8183
    23.1221  26.2813

          k = 0.7500-0.2500 0.7500 (   370 PWs)   bands (ev):

     5.4713   5.9222   6.7349   6.9595   7.7471  11.5081  16.1074  20.7671
    23.2501  26.2110

          k = 0.6250-0.1250 0.6250 (   374 PWs)   bands (ev):

     5.6457   6.0986   6.5881   6.8659   7.5161  12.5773  15.0039  19.4513
    24.5435  26.5065

          k = 0.5000 0.0000 0.5000 (   373 PWs)   bands (ev):

     5.9210   6.0905   6.4396   6.8196   7.1226  10.0025  18.9777  19.0727
    26.7664  27.3316

          k = 0.0000 0.7500 0.0000 (   375 PWs)   bands (ev):

     5.2715   5.3283   7.5823   7.5823   7.5828   9.8012  19.8455  21.7056
    21.7056  25.9977

          k = 0.8750-0.1250 0.8750 (   368 PWs)   bands (ev):

     5.2339   5.3607   7.4504   7.4804   7.7960  12.0091  17.5643  18.9688
    21.4665  26.0240

          k = 0.7500 0.0000 0.7500 (   377 PWs)   bands (ev):

     5.4086   5.7505   6.9101   7.2734   7.6561  14.5996  15.3764  16.8330
    22.5094  26.1416

          k = 0.0000-1.0000 0.0000 (   388 PWs)   bands (ev):

     5.0761   5.1721   7.6701   7.8648   7.8648  12.4281  16.2456  20.7953
    20.7953  25.8982

          k =-0.2500 0.5000 0.0000 (   370 PWs)   bands (ev):

     5.7889   5.8503   6.3905   6.9897   7.1531   8.2733  21.4972  21.7296
    25.8375  29.4242

          k = 0.6250-0.3750 0.8750 (   372 PWs)   bands (ev):

     5.6725   6.1047   6.3931   6.9280   7.4977  10.3032  17.2126  21.3848
    23.6627  28.9082

          k = 0.5000-0.2500 0.7500 (   378 PWs)   bands (ev):

     5.6258   5.9916   6.7008   6.7827   7.6518  12.8175  13.9042  21.8549
    22.3490  28.5598

          k = 0.7500-0.2500 1.0000 (   374 PWs)   bands (ev):

     5.5435   5.5447   6.8176   7.4687   7.5763  10.8063  19.4567  19.7367
    20.5876  28.6175

          k = 0.6250-0.1250 0.8750 (   381 PWs)   bands (ev):

     5.5937   5.8282   6.5638   7.1875   7.7420  13.6298  15.8830  18.4658
    20.3299  28.8697

          k = 0.5000 0.0000 0.7500 (   379 PWs)   bands (ev):

     5.8237   6.1266   6.1533   7.0798   7.5728  12.7624  16.9097  17.6894
    21.6753  29.4505

          k =-0.2500-1.0000 0.0000 (   374 PWs)   bands (ev):

     5.3301   5.4190   7.1881   7.4396   7.8654  13.6031  16.3921  18.9520
    19.2379  28.3396

          k =-0.5000-1.0000 0.0000 (   380 PWs)   bands (ev):

     5.6704   6.1384   6.1384   7.1201   7.8658  16.0891  16.0891  16.6865
    18.0435  32.7398

     the Fermi energy is    10.6464 ev

!    total energy              =     -73.63464565 Ry
     Harris-Foulkes estimate   =     -73.63464566 Ry
     estimated scf accuracy    <       0.00000001 Ry

     The total energy is the sum of the following terms:

     one-electron contribution =      -8.03087638 Ry
     hartree contribution      =      14.26460677 Ry
     xc contribution           =     -11.59437476 Ry
     ewald contribution        =     -68.27226660 Ry
     smearing contrib. (-TS)   =      -0.00173468 Ry

     convergence has been achieved in   6 iterations

     Forces acting on atoms (Ry/au):

     atom    1 type  1   force =     0.00000000    0.00000000    0.00000000

     Total force =     0.000000     Total SCF correction =     0.000000


     entering subroutine stress ...

          total   stress  (Ry/bohr**3)                   (kbar)     P=  -63.03
  -0.00042846   0.00000000  -0.00000000        -63.03      0.00     -0.00
   0.00000000  -0.00042846  -0.00000000          0.00    -63.03     -0.00
  -0.00000000   0.00000000  -0.00042846         -0.00      0.00    -63.03


     BFGS Geometry Optimization

     number of scf cycles    =   1
     number of bfgs steps    =   0

     enthalpy new            =     -73.6346456532 Ry

     new trust radius        =       0.0248111832 bohr
     new conv_thr            =       0.0000001000 Ry

     new unit-cell volume =    129.87064 a.u.^3 (    19.24484 Ang^3 )

CELL_PARAMETERS (alat=  8.12582237)
  -0.494644297  -0.000000000   0.494644297
   0.000000000   0.494644297   0.494644297
  -0.494644297   0.494644297  -0.000000000

ATOMIC_POSITIONS (alat)
Ag       0.000000000   0.000000000   0.000000000



     Writing output data file ag.save
     Check: negative starting charge=   -0.000115
     NEW-OLD atomic charge density approx. for the potential

     negative rho (up, down):  9.892E-05 0.000E+00
     extrapolated charge   10.63883, renormalised to   11.00000

     total cpu time spent up to now is        7.3 secs

     per-process dynamical memory:     9.1 Mb

     Self-consistent Calculation

     iteration #  1     ecut=    30.00 Ry     beta=0.70
     Davidson diagonalization with overlap
     ethr =  1.00E-06,  avg # of iterations =  3.3

     negative rho (up, down):  1.088E-04 0.000E+00

     total cpu time spent up to now is        8.5 secs

     total energy              =     -73.58624663 Ry
     Harris-Foulkes estimate   =     -74.06319628 Ry
     estimated scf accuracy    <       0.03979372 Ry

     iteration #  2     ecut=    30.00 Ry     beta=0.70
     Davidson diagonalization with overlap
     ethr =  3.62E-04,  avg # of iterations =  2.0

     negative rho (up, down):  1.053E-04 0.000E+00

     total cpu time spent up to now is        9.4 secs

     total energy              =     -73.63003980 Ry
     Harris-Foulkes estimate   =     -73.67444886 Ry
     estimated scf accuracy    <       0.12586876 Ry

     iteration #  3     ecut=    30.00 Ry     beta=0.70
     Davidson diagonalization with overlap
     ethr =  3.62E-04,  avg # of iterations =  2.0

     negative rho (up, down):  1.043E-04 0.000E+00

     total cpu time spent up to now is       10.1 secs

     total energy              =     -73.63610562 Ry
     Harris-Foulkes estimate   =     -73.64066111 Ry
     estimated scf accuracy    <       0.01417657 Ry

     iteration #  4     ecut=    30.00 Ry     beta=0.70
     Davidson diagonalization with overlap
     ethr =  1.29E-04,  avg # of iterations =  1.0

     negative rho (up, down):  1.042E-04 0.000E+00

     total cpu time spent up to now is       10.8 secs

     total energy              =     -73.63683109 Ry
     Harris-Foulkes estimate   =     -73.63705081 Ry
     estimated scf accuracy    <       0.00253661 Ry

     iteration #  5     ecut=    30.00 Ry     beta=0.70
     Davidson diagonalization with overlap
     ethr =  2.31E-05,  avg # of iterations =  1.0

     negative rho (up, down):  1.043E-04 0.000E+00

     total cpu time spent up to now is       11.5 secs

     total energy              =     -73.63689346 Ry
     Harris-Foulkes estimate   =     -73.63684584 Ry
     estimated scf accuracy    <       0.00188416 Ry

     iteration #  6     ecut=    30.00 Ry     beta=0.70
     Davidson diagonalization with overlap
     ethr =  1.71E-05,  avg # of iterations =  1.1

     negative rho (up, down):  1.037E-04 0.000E+00

     total cpu time spent up to now is       12.1 secs

     total energy              =     -73.63585808 Ry
     Harris-Foulkes estimate   =     -73.63689422 Ry
     estimated scf accuracy    <       0.00201277 Ry

     iteration #  7     ecut=    30.00 Ry     beta=0.70
     Davidson diagonalization with overlap
     ethr =  1.71E-05,  avg # of iterations =  1.7

     negative rho (up, down):  1.037E-04 0.000E+00

     total cpu time spent up to now is       12.8 secs

     total energy              =     -73.63624766 Ry
     Harris-Foulkes estimate   =     -73.63624756 Ry
     estimated scf accuracy    <       0.00000146 Ry

     iteration #  8     ecut=    30.00 Ry     beta=0.70
     Davidson diagonalization with overlap
     ethr =  1.32E-08,  avg # of iterations =  2.8

     negative rho (up, down):  1.037E-04 0.000E+00

     total cpu time spent up to now is       13.7 secs

     total energy              =     -73.63624998 Ry
     Harris-Foulkes estimate   =     -73.63624979 Ry
     estimated scf accuracy    <       0.00000148 Ry

     iteration #  9     ecut=    30.00 Ry     beta=0.70
     Davidson diagonalization with overlap
     ethr =  1.32E-08,  avg # of iterations =  1.0

     negative rho (up, down):  1.037E-04 0.000E+00

     total cpu time spent up to now is       14.4 secs

     total energy              =     -73.63624943 Ry
     Harris-Foulkes estimate   =     -73.63625000 Ry
     estimated scf accuracy    <       0.00000215 Ry

     iteration # 10     ecut=    30.00 Ry     beta=0.70
     Davidson diagonalization with overlap
     ethr =  1.32E-08,  avg # of iterations =  1.0

     negative rho (up, down):  1.037E-04 0.000E+00

     total cpu time spent up to now is       15.0 secs

     total energy              =     -73.63624943 Ry
     Harris-Foulkes estimate   =     -73.63624955 Ry
     estimated scf accuracy    <       0.00000031 Ry

     iteration # 11     ecut=    30.00 Ry     beta=0.70
     Davidson diagonalization with overlap
     ethr =  2.80E-09,  avg # of iterations =  1.3

     negative rho (up, down):  1.037E-04 0.000E+00

     total cpu time spent up to now is       15.8 secs

     End of self-consistent calculation

          k = 0.0000 0.0000 0.0000 (   339 PWs)   bands (ev):

     4.2178   6.7390   6.7390   6.7390   7.5611   7.5611  28.3579  30.4873
    30.4873  30.4873

          k =-0.1264 0.1264-0.1264 (   362 PWs)   bands (ev):

     4.6465   6.6758   6.8364   6.8364   7.5366   7.5366  26.3373  28.8427
    30.1275  30.1275

          k =-0.2527 0.2527-0.2527 (   359 PWs)   bands (ev):

     5.4628   6.9021   6.9021   7.0266   7.6734   7.6734  21.4888  28.4244
    29.3865  29.3865

          k =-0.3791 0.3791-0.3791 (   362 PWs)   bands (ev):

     5.5199   6.7859   6.7859   8.0304   8.0304   9.0156  16.9859  27.6105
    28.5912  28.5912

          k = 0.5054-0.5054 0.5054 (   368 PWs)   bands (ev):

     5.4473   6.7195   6.7195   8.2091   8.2091  11.0939  14.1275  27.2473
    28.2164  28.2164

          k = 0.0000 0.2527 0.0000 (   359 PWs)   bands (ev):

     4.7917   6.5476   6.9324   6.9324   7.3896   7.6480  27.9324  28.1773
    28.1773  28.7743

          k =-0.1264 0.3791-0.1264 (   366 PWs)   bands (ev):

     5.5605   6.4414   6.9761   7.0867   7.6155   7.7899  23.3920  26.8253
    27.7408  29.6107

          k =-0.2527 0.5054-0.2527 (   366 PWs)   bands (ev):

     5.7623   6.7412   7.0250   7.0575   8.0912   9.0452  18.7002  26.1894
    26.8002  27.7114

          k = 0.6318-0.3791 0.6318 (   377 PWs)   bands (ev):

     5.6657   6.6062   6.9142   7.6104   8.2218  11.5349  14.8057  25.2189
    26.4891  27.3436

          k = 0.5054-0.2527 0.5054 (   374 PWs)   bands (ev):

     5.7171   6.6481   6.9098   7.6338   7.9859  10.7162  15.9654  24.3546
    27.8040  27.8956

          k = 0.3791-0.1264 0.3791 (   370 PWs)   bands (ev):

     5.8499   6.7213   7.0301   7.0492   7.5332   8.6748  20.2388  24.3586
    29.1584  30.3123

          k = 0.2527 0.0000 0.2527 (   367 PWs)   bands (ev):

     5.2826   6.5284   6.9700   6.9937   7.3626   7.8013  24.9688  25.1407
    30.5274  31.5328

          k = 0.0000 0.5054 0.0000 (   351 PWs)   bands (ev):

     5.8256   6.1067   7.4546   7.4546   7.6681   7.8623  24.9104  24.9104
    26.2437  27.3321

          k =-0.1264 0.6318-0.1264 (   372 PWs)   bands (ev):

     5.8637   6.0723   7.3378   7.5412   8.1184   9.3661  20.9708  23.6133
    23.9020  27.1265

          k = 0.7581-0.2527 0.7581 (   370 PWs)   bands (ev):

     5.8409   6.3135   7.1717   7.4190   8.2554  12.0530  16.7678  21.5256
    24.0339  27.0382

          k = 0.6318-0.1264 0.6318 (   374 PWs)   bands (ev):

     6.0253   6.4995   7.0153   7.3195   8.0099  13.1464  15.6494  20.1826
    25.3675  27.3161

          k = 0.5054 0.0000 0.5054 (   373 PWs)   bands (ev):

     6.3142   6.4943   6.8510   7.2706   7.5926  10.5325  19.6879  19.8046
    27.6540  28.1345

          k = 0.0000 0.7581 0.0000 (   375 PWs)   bands (ev):

     5.6262   5.6921   8.0793   8.0793   8.0818  10.2759  20.6113  22.4404
    22.4404  26.8786

          k = 0.8845-0.1264 0.8845 (   368 PWs)   bands (ev):

     5.5888   5.7240   7.9335   7.9720   8.3071  12.5384  18.2999  19.6509
    22.1934  26.8827

          k = 0.7581 0.0000 0.7581 (   377 PWs)   bands (ev):

     5.7747   6.1318   7.3582   7.7517   8.1584  15.1880  16.0215  17.5361
    23.2718  26.9814

          k = 0.0000-1.0108 0.0000 (   388 PWs)   bands (ev):

     5.4213   5.5272   8.1745   8.3801   8.3801  12.9225  16.9796  21.4982
    21.4982  26.7859

          k =-0.2527 0.5054 0.0000 (   370 PWs)   bands (ev):

     6.1591   6.2429   6.8147   7.4511   7.6184   8.7677  22.2663  22.4942
    26.6660  30.2757

          k = 0.6318-0.3791 0.8845 (   372 PWs)   bands (ev):

     6.0514   6.5098   6.8090   7.3828   7.9891  10.8300  17.8992  22.1476
    24.4578  29.7715

          k = 0.5054-0.2527 0.7581 (   378 PWs)   bands (ev):

     6.0028   6.3905   7.1340   7.2311   8.1539  13.3568  14.5609  22.6500
    23.0969  29.4010

          k = 0.7581-0.2527 1.0108 (   374 PWs)   bands (ev):

     5.9126   5.9196   7.2619   7.9571   8.0730  11.3335  20.2092  20.4489
    21.3149  29.4804

          k = 0.6318-0.1264 0.8845 (   381 PWs)   bands (ev):

     5.9685   6.2149   6.9926   7.6598   8.2495  14.2219  16.5344  19.1887
    21.0532  29.7478

          k = 0.5054 0.0000 0.7581 (   379 PWs)   bands (ev):

     6.2121   6.5268   6.5599   7.5453   8.0696  13.3454  17.5649  18.4044
    22.4352  30.3289

          k =-0.2527-1.0108 0.0000 (   374 PWs)   bands (ev):

     5.6884   5.7869   7.6544   7.9284   8.3806  14.1530  17.1239  19.6378
    19.9302  29.2058

          k =-0.5054-1.0108 0.0000 (   380 PWs)   bands (ev):

     6.0465   6.5442   6.5442   7.5883   8.3810  16.7169  16.7169  17.4232
    18.7180  33.6545

     the Fermi energy is    11.1632 ev

!    total energy              =     -73.63624948 Ry
     Harris-Foulkes estimate   =     -73.63624948 Ry
     estimated scf accuracy    <       0.00000006 Ry

     The total energy is the sum of the following terms:

     one-electron contribution =      -6.90075694 Ry
     hartree contribution      =      13.88331825 Ry
     xc contribution           =     -11.60556193 Ry
     ewald contribution        =     -69.01147655 Ry
     smearing contrib. (-TS)   =      -0.00177231 Ry

     convergence has been achieved in  11 iterations

     Forces acting on atoms (Ry/au):

     atom    1 type  1   force =     0.00000000    0.00000000    0.00000000

     Total force =     0.000000     Total SCF correction =     0.000000


     entering subroutine stress ...

          total   stress  (Ry/bohr**3)                   (kbar)     P=  -45.87
  -0.00031180  -0.00000000  -0.00000000        -45.87     -0.00     -0.00
  -0.00000000  -0.00031180   0.00000000         -0.00    -45.87      0.00
  -0.00000000   0.00000000  -0.00031180         -0.00      0.00    -45.87


     number of scf cycles    =   2
     number of bfgs steps    =   1

     enthalpy old            =     -73.6346456532 Ry
     enthalpy new            =     -73.6362494775 Ry

     CASE: enthalpy_new < enthalpy_old

     new trust radius        =       0.0370169161 bohr
     new conv_thr            =       0.0000000010 Ry

     new unit-cell volume =    123.64514 a.u.^3 (    18.32232 Ang^3 )

CELL_PARAMETERS (alat=  8.12582237)
  -0.486610742   0.000000000   0.486610742
  -0.000000000   0.486610742   0.486610742
  -0.486610742   0.486610742   0.000000000

ATOMIC_POSITIONS (alat)
Ag      -0.000000000   0.000000000   0.000000000



     Writing output data file ag.save
     NEW-OLD atomic charge density approx. for the potential

     negative rho (up, down):  6.663E-05 0.000E+00
     extrapolated charge   10.44617, renormalised to   11.00000

     total cpu time spent up to now is       16.6 secs

     per-process dynamical memory:     9.2 Mb

     Self-consistent Calculation

     iteration #  1     ecut=    30.00 Ry     beta=0.70
     Davidson diagonalization with overlap
     ethr =  1.00E-06,  avg # of iterations =  3.3

     negative rho (up, down):  7.759E-05 0.000E+00

     total cpu time spent up to now is       17.6 secs

     total energy              =     -73.53201855 Ry
     Harris-Foulkes estimate   =     -74.23932472 Ry
     estimated scf accuracy    <       0.08450635 Ry

     iteration #  2     ecut=    30.00 Ry     beta=0.70
     Davidson diagonalization with overlap
     ethr =  7.68E-04,  avg # of iterations =  2.0

     negative rho (up, down):  7.405E-05 0.000E+00

     total cpu time spent up to now is       18.5 secs

     total energy              =     -73.62416919 Ry
     Harris-Foulkes estimate   =     -73.71565864 Ry
     estimated scf accuracy    <       0.25792880 Ry

     iteration #  3     ecut=    30.00 Ry     beta=0.70
     Davidson diagonalization with overlap
     ethr =  7.68E-04,  avg # of iterations =  2.0

     negative rho (up, down):  7.306E-05 0.000E+00

     total cpu time spent up to now is       19.3 secs

     total energy              =     -73.63717106 Ry
     Harris-Foulkes estimate   =     -73.64620440 Ry
     estimated scf accuracy    <       0.02804384 Ry

     iteration #  4     ecut=    30.00 Ry     beta=0.70
     Davidson diagonalization with overlap
     ethr =  2.55E-04,  avg # of iterations =  1.0

     negative rho (up, down):  7.302E-05 0.000E+00

     total cpu time spent up to now is       20.1 secs

     total energy              =     -73.63791759 Ry
     Harris-Foulkes estimate   =     -73.63905832 Ry
     estimated scf accuracy    <       0.00497909 Ry

     iteration #  5     ecut=    30.00 Ry     beta=0.70
     Davidson diagonalization with overlap
     ethr =  4.53E-05,  avg # of iterations =  1.0

     negative rho (up, down):  7.273E-05 0.000E+00

     total cpu time spent up to now is       20.7 secs

     total energy              =     -73.63723951 Ry
     Harris-Foulkes estimate   =     -73.63807279 Ry
     estimated scf accuracy    <       0.00186752 Ry

     iteration #  6     ecut=    30.00 Ry     beta=0.70
     Davidson diagonalization with overlap
     ethr =  1.70E-05,  avg # of iterations =  1.2

     negative rho (up, down):  7.261E-05 0.000E+00

     total cpu time spent up to now is       21.4 secs

     total energy              =     -73.63745523 Ry
     Harris-Foulkes estimate   =     -73.63749103 Ry
     estimated scf accuracy    <       0.00005549 Ry

     iteration #  7     ecut=    30.00 Ry     beta=0.70
     Davidson diagonalization with overlap
     ethr =  5.04E-07,  avg # of iterations =  2.0

     negative rho (up, down):  7.260E-05 0.000E+00

     total cpu time spent up to now is       22.2 secs

     total energy              =     -73.63747396 Ry
     Harris-Foulkes estimate   =     -73.63747861 Ry
     estimated scf accuracy    <       0.00000983 Ry

     iteration #  8     ecut=    30.00 Ry     beta=0.70
     Davidson diagonalization with overlap
     ethr =  8.93E-08,  avg # of iterations =  1.2

     negative rho (up, down):  7.260E-05 0.000E+00

     total cpu time spent up to now is       22.9 secs

     total energy              =     -73.63747552 Ry
     Harris-Foulkes estimate   =     -73.63747546 Ry
     estimated scf accuracy    <       0.00000017 Ry

     iteration #  9     ecut=    30.00 Ry     beta=0.70
     Davidson diagonalization with overlap
     ethr =  1.52E-09,  avg # of iterations =  1.6

     negative rho (up, down):  7.261E-05 0.000E+00

     total cpu time spent up to now is       23.6 secs

     total energy              =     -73.63747545 Ry
     Harris-Foulkes estimate   =     -73.63747554 Ry
     estimated scf accuracy    <       0.00000036 Ry

     iteration # 10     ecut=    30.00 Ry     beta=0.70
     Davidson diagonalization with overlap
     ethr =  1.52E-09,  avg # of iterations =  1.0

     negative rho (up, down):  7.261E-05 0.000E+00

     total cpu time spent up to now is       24.2 secs

     total energy              =     -73.63747540 Ry
     Harris-Foulkes estimate   =     -73.63747546 Ry
     estimated scf accuracy    <       0.00000011 Ry

     iteration # 11     ecut=    30.00 Ry     beta=0.70
     Davidson diagonalization with overlap
     ethr =  9.74E-10,  avg # of iterations =  1.7

     negative rho (up, down):  7.261E-05 0.000E+00

     total cpu time spent up to now is       25.0 secs

     End of self-consistent calculation

          k = 0.0000 0.0000 0.0000 (   339 PWs)   bands (ev):

     4.7074   7.4064   7.4064   7.4064   8.3047   8.3047  29.4813  31.8873
    31.8873  31.8873

          k =-0.1284 0.1284-0.1284 (   362 PWs)   bands (ev):

     5.1532   7.3350   7.5123   7.5123   8.2774   8.2774  27.6146  30.0374
    31.5614  31.5614

          k =-0.2569 0.2569-0.2569 (   359 PWs)   bands (ev):

     6.0086   7.5834   7.5834   7.6784   8.4252   8.4252  22.6825  29.5858
    30.8479  30.8479

          k =-0.3853 0.3853-0.3853 (   362 PWs)   bands (ev):

     6.0761   7.4563   7.4563   8.8151   8.8151   9.7107  18.0697  28.7238
    30.0263  30.0263

          k = 0.5138-0.5138 0.5138 (   368 PWs)   bands (ev):

     5.9989   7.3838   7.3838   9.0109   9.0109  11.7948  15.1887  28.3404
    29.6265  29.6265

          k = 0.0000 0.2569 0.0000 (   359 PWs)   bands (ev):

     5.3040   7.1966   7.6165   7.6165   8.1150   8.3995  29.1232  29.5627
    29.5627  30.0723

          k =-0.1284 0.3853-0.1284 (   366 PWs)   bands (ev):

     6.1066   7.0749   7.6627   7.7841   8.3458   8.5535  24.6302  28.1783
    28.9649  31.0153

          k =-0.2569 0.5138-0.2569 (   366 PWs)   bands (ev):

     6.3346   7.4043   7.7166   7.7267   8.8820   9.8094  19.8205  27.5215
    28.0030  29.1138

          k = 0.6422-0.3853 0.6422 (   377 PWs)   bands (ev):

     6.2332   7.2575   7.5955   8.3374   9.0248  12.3302  15.8484  26.4727
    27.8309  28.5982

          k = 0.5138-0.2569 0.5138 (   374 PWs)   bands (ev):

     6.2882   7.3039   7.5908   8.3568   8.7661  11.5179  17.0215  25.6046
    29.0259  29.2999

          k = 0.3853-0.1284 0.3853 (   370 PWs)   bands (ev):

     6.4245   7.3791   7.7138   7.7224   8.2713   9.4629  21.4008  25.6166
    30.4139  31.8304

          k = 0.2569 0.0000 0.2569 (   367 PWs)   bands (ev):

     5.8152   7.1737   7.6537   7.6836   8.0861   8.5613  26.2422  26.4082
    31.8143  32.8836

          k = 0.0000 0.5138 0.0000 (   351 PWs)   bands (ev):

     6.3884   6.7148   8.1842   8.1842   8.3652   8.6330  26.1867  26.1867
    27.4841  28.6116

          k =-0.1284 0.6422-0.1284 (   372 PWs)   bands (ev):

     6.4440   6.6688   8.0423   8.2792   8.9121  10.1365  22.1397  24.8675
    25.1347  28.4640

          k = 0.7706-0.2569 0.7706 (   370 PWs)   bands (ev):

     6.4223   6.9293   7.8612   8.1454   9.0616  12.9210  17.8175  22.7264
    25.2730  28.3450

          k = 0.6422-0.1284 0.6422 (   374 PWs)   bands (ev):

     6.6231   7.1308   7.6891   8.0365   8.7922  14.0516  16.6779  21.3418
    26.6697  28.5930

          k = 0.5138 0.0000 0.5138 (   373 PWs)   bands (ev):

     6.9338   7.1306   7.4997   7.9832   8.3363  11.3784  20.8165  20.9635
    29.0552  29.3996

          k = 0.0000 0.7706 0.0000 (   375 PWs)   bands (ev):

     6.1839   6.2638   8.8669   8.8669   8.8729  11.0309  21.8232  23.6023
    23.6023  28.2743

          k = 0.8991-0.1284 0.8991 (   368 PWs)   bands (ev):

     6.1461   6.2952   8.6977   8.7509   9.1178  13.3806  19.4670  20.7323
    23.3426  28.2408

          k = 0.7706 0.0000 0.7706 (   377 PWs)   bands (ev):

     6.3503   6.7319   8.0658   8.5088   8.9547  16.1257  17.0409  18.6572
    24.4773  28.3080

          k = 0.0000-1.0275 0.0000 (   388 PWs)   bands (ev):

     5.9633   6.0851   8.9743   9.1975   9.1975  13.7094  18.1443  22.6093
    22.6093  28.1909

          k =-0.2569 0.5138 0.0000 (   370 PWs)   bands (ev):

     6.7442   6.8612   7.4841   8.1809   8.3544   9.5555  23.4804  23.7058
    27.9705  31.6163

          k = 0.6422-0.3853 0.8991 (   372 PWs)   bands (ev):

     6.6482   7.1477   7.4651   8.1017   8.7675  11.6702  18.9900  23.3538
    25.7143  31.1320

          k = 0.5138-0.2569 0.7706 (   378 PWs)   bands (ev):

     6.5965   7.0185   7.8175   7.9396   8.9499  14.2178  15.6048  23.9082
    24.2794  30.7262

          k = 0.7706-0.2569 1.0275 (   374 PWs)   bands (ev):

     6.4930   6.5093   7.9633   8.7303   8.8602  12.1740  21.3968  21.5783
    22.4709  30.8421

          k = 0.6422-0.1284 0.8991 (   381 PWs)   bands (ev):

     6.5580   6.8237   7.6692   8.4069   9.0541  15.1633  17.5691  20.3365
    22.2000  31.1316

          k = 0.5138 0.0000 0.7706 (   379 PWs)   bands (ev):

     6.8233   7.1574   7.2007   8.2815   8.8568  14.2733  18.6071  19.5381
    23.6388  31.7124

          k =-0.2569-1.0275 0.0000 (   374 PWs)   bands (ev):

     6.2513   6.3653   8.3914   8.7027   9.1980  15.0295  18.2843  20.7250
    21.0277  30.5737

          k =-0.5138-1.0275 0.0000 (   380 PWs)   bands (ev):

     6.6379   7.1836   7.1836   8.3289   9.1984  17.7156  17.7156  18.5897
    19.7903  35.1011

     the Fermi energy is    11.9873 ev

!    total energy              =     -73.63747543 Ry
     Harris-Foulkes estimate   =     -73.63747543 Ry
     estimated scf accuracy    <          9.7E-11 Ry

     The total energy is the sum of the following terms:

     one-electron contribution =      -5.17058384 Ry
     hartree contribution      =      13.31022145 Ry
     xc contribution           =     -11.62449075 Ry
     ewald contribution        =     -70.15080090 Ry
     smearing contrib. (-TS)   =      -0.00182138 Ry

     convergence has been achieved in  11 iterations

     Forces acting on atoms (Ry/au):

     atom    1 type  1   force =     0.00000000    0.00000000    0.00000000

     Total force =     0.000000     Total SCF correction =     0.000000


     entering subroutine stress ...

          total   stress  (Ry/bohr**3)                   (kbar)     P=  -10.01
  -0.00006801   0.00000000  -0.00000000        -10.01      0.00     -0.00
   0.00000000  -0.00006801  -0.00000000          0.00    -10.01     -0.00
  -0.00000000  -0.00000000  -0.00006801         -0.00     -0.00    -10.01


     number of scf cycles    =   3
     number of bfgs steps    =   2

     enthalpy old            =     -73.6362494775 Ry
     enthalpy new            =     -73.6374754252 Ry

     CASE: enthalpy_new < enthalpy_old

     new trust radius        =       0.0098248798 bohr
     new conv_thr            =       0.0000000010 Ry

     new unit-cell volume =    122.01364 a.u.^3 (    18.08056 Ang^3 )

CELL_PARAMETERS (alat=  8.12582237)
  -0.484460980   0.000000000   0.484460980
  -0.000000000   0.484460980   0.484460980
  -0.484460980   0.484460980   0.000000000

ATOMIC_POSITIONS (alat)
Ag      -0.000000000   0.000000000   0.000000000



     Writing output data file ag.save
     NEW-OLD atomic charge density approx. for the potential

     negative rho (up, down):  6.440E-05 0.000E+00
     extrapolated charge   10.85292, renormalised to   11.00000

     total cpu time spent up to now is       26.0 secs

     per-process dynamical memory:     9.2 Mb

     Self-consistent Calculation

     iteration #  1     ecut=    30.00 Ry     beta=0.70
     Davidson diagonalization with overlap
     ethr =  1.00E-06,  avg # of iterations =  3.0

     negative rho (up, down):  6.692E-05 0.000E+00

     total cpu time spent up to now is       26.9 secs

     total energy              =     -73.62917592 Ry
     Harris-Foulkes estimate   =     -73.78897967 Ry
     estimated scf accuracy    <       0.00663670 Ry

     iteration #  2     ecut=    30.00 Ry     beta=0.70
     Davidson diagonalization with overlap
     ethr =  6.03E-05,  avg # of iterations =  2.0

     negative rho (up, down):  6.599E-05 0.000E+00

     total cpu time spent up to now is       27.8 secs

     total energy              =     -73.63672429 Ry
     Harris-Foulkes estimate   =     -73.64376546 Ry
     estimated scf accuracy    <       0.01963380 Ry

     iteration #  3     ecut=    30.00 Ry     beta=0.70
     Davidson diagonalization with overlap
     ethr =  6.03E-05,  avg # of iterations =  1.8

     negative rho (up, down):  6.590E-05 0.000E+00

     total cpu time spent up to now is       28.6 secs

     total energy              =     -73.63803156 Ry
     Harris-Foulkes estimate   =     -73.63830429 Ry
     estimated scf accuracy    <       0.00246627 Ry

     iteration #  4     ecut=    30.00 Ry     beta=0.70
     Davidson diagonalization with overlap
     ethr =  2.24E-05,  avg # of iterations =  1.0

     negative rho (up, down):  6.576E-05 0.000E+00

     total cpu time spent up to now is       29.2 secs

     total energy              =     -73.63763223 Ry
     Harris-Foulkes estimate   =     -73.63805347 Ry
     estimated scf accuracy    <       0.00166245 Ry

     iteration #  5     ecut=    30.00 Ry     beta=0.70
     Davidson diagonalization with overlap
     ethr =  1.51E-05,  avg # of iterations =  1.0

     negative rho (up, down):  6.563E-05 0.000E+00

     total cpu time spent up to now is       29.9 secs

     total energy              =     -73.63749474 Ry
     Harris-Foulkes estimate   =     -73.63769369 Ry
     estimated scf accuracy    <       0.00053578 Ry

     iteration #  6     ecut=    30.00 Ry     beta=0.70
     Davidson diagonalization with overlap
     ethr =  4.87E-06,  avg # of iterations =  1.0

     negative rho (up, down):  6.556E-05 0.000E+00

     total cpu time spent up to now is       30.6 secs

     total energy              =     -73.63750868 Ry
     Harris-Foulkes estimate   =     -73.63754115 Ry
     estimated scf accuracy    <       0.00006007 Ry

     iteration #  7     ecut=    30.00 Ry     beta=0.70
     Davidson diagonalization with overlap
     ethr =  5.46E-07,  avg # of iterations =  1.8

     negative rho (up, down):  6.555E-05 0.000E+00

     total cpu time spent up to now is       31.3 secs

     total energy              =     -73.63752237 Ry
     Harris-Foulkes estimate   =     -73.63752181 Ry
     estimated scf accuracy    <       0.00000021 Ry

     iteration #  8     ecut=    30.00 Ry     beta=0.70
     Davidson diagonalization with overlap
     ethr =  1.88E-09,  avg # of iterations =  2.1

     negative rho (up, down):  6.556E-05 0.000E+00

     total cpu time spent up to now is       32.1 secs

     total energy              =     -73.63752126 Ry
     Harris-Foulkes estimate   =     -73.63752269 Ry
     estimated scf accuracy    <       0.00000281 Ry

     iteration #  9     ecut=    30.00 Ry     beta=0.70
     Davidson diagonalization with overlap
     ethr =  1.88E-09,  avg # of iterations =  2.0

     negative rho (up, down):  6.556E-05 0.000E+00

     total cpu time spent up to now is       33.0 secs

     total energy              =     -73.63752178 Ry
     Harris-Foulkes estimate   =     -73.63752178 Ry
     estimated scf accuracy    <          1.9E-09 Ry

     iteration # 10     ecut=    30.00 Ry     beta=0.70
     Davidson diagonalization with overlap
     ethr =  1.74E-11,  avg # of iterations =  1.0

     negative rho (up, down):  6.556E-05 0.000E+00

     total cpu time spent up to now is       33.6 secs

     total energy              =     -73.63752177 Ry
     Harris-Foulkes estimate   =     -73.63752178 Ry
     estimated scf accuracy    <          3.0E-09 Ry

     iteration # 11     ecut=    30.00 Ry     beta=0.70
     Davidson diagonalization with overlap
     ethr =  1.74E-11,  avg # of iterations =  2.0

     negative rho (up, down):  6.556E-05 0.000E+00

     total cpu time spent up to now is       34.5 secs

     End of self-consistent calculation

          k = 0.0000 0.0000 0.0000 (   339 PWs)   bands (ev):

     4.8452   7.5925   7.5925   7.5925   8.5123   8.5123  29.7934  32.2748
    32.2748  32.2748

          k =-0.1290 0.1290-0.1290 (   362 PWs)   bands (ev):

     5.2957   7.5187   7.7007   7.7007   8.4842   8.4842  27.9689  30.3694
    31.9589  31.9589

          k =-0.2580 0.2580-0.2580 (   359 PWs)   bands (ev):

     6.1613   7.7733   7.7733   7.8605   8.6352   8.6352  23.0156  29.9083
    31.2544  31.2544

          k =-0.3870 0.3870-0.3870 (   362 PWs)   bands (ev):

     6.2310   7.6431   7.6431   9.0344   9.0344   9.9054  18.3733  29.0331
    30.4257  30.4257

          k = 0.5160-0.5160 0.5160 (   368 PWs)   bands (ev):

     6.1525   7.5689   7.5689   9.2350   9.2350  11.9915  15.4861  28.6440
    30.0188  30.0188

          k = 0.0000 0.2580 0.0000 (   359 PWs)   bands (ev):

     5.4480   7.3773   7.8072   7.8072   8.3174   8.6093  29.4541  29.9479
    29.9479  30.4308

          k =-0.1290 0.3870-0.1290 (   366 PWs)   bands (ev):

     6.2597   7.2513   7.8541   7.9786   8.5499   8.7669  24.9752  28.5550
    29.3043  31.4037

          k =-0.2580 0.5160-0.2580 (   366 PWs)   bands (ev):

     6.4940   7.5890   7.9094   7.9132   9.1030  10.0240  20.1339  27.8926
    28.3352  29.5060

          k = 0.6450-0.3870 0.6450 (   377 PWs)   bands (ev):

     6.3912   7.4388   7.7854   8.5400   9.2493  12.5533  16.1409  26.8198
    28.2046  28.9488

          k = 0.5160-0.2580 0.5160 (   374 PWs)   bands (ev):

     6.4472   7.4865   7.7805   8.5582   8.9841  11.7430  17.3177  25.9520
    29.3662  29.6908

          k = 0.3870-0.1290 0.3870 (   370 PWs)   bands (ev):

     6.5848   7.5623   7.8993   7.9154   8.4773   9.6840  21.7255  25.9667
    30.7633  32.2523

          k = 0.2580 0.0000 0.2580 (   367 PWs)   bands (ev):

     5.9648   7.3533   7.8443   7.8760   8.2879   8.7736  26.5958  26.7611
    32.1718  33.2597

          k = 0.0000 0.5160 0.0000 (   351 PWs)   bands (ev):

     6.5456   6.8839   8.3878   8.3878   8.5604   8.8483  26.5424  26.5424
    27.8265  28.9681

          k =-0.1290 0.6450-0.1290 (   372 PWs)   bands (ev):

     6.6053   6.8348   8.2388   8.4852   9.1340  10.3528  22.4658  25.2166
    25.4784  28.8371

          k = 0.7741-0.2580 0.7741 (   370 PWs)   bands (ev):

     6.5840   7.1006   8.0534   8.3481   9.2870  13.1645  18.1113  23.0614
    25.6184  28.7090

          k = 0.6450-0.1290 0.6450 (   374 PWs)   bands (ev):

     6.7894   7.3064   7.8768   8.2365   9.0109  14.3053  16.9664  21.6656
    27.0326  28.9482

          k = 0.5160 0.0000 0.5160 (   373 PWs)   bands (ev):

     7.1064   7.3077   7.6804   8.1819   8.5439  11.6159  21.1324  21.2869
    29.4455  29.7513

          k = 0.0000 0.7741 0.0000 (   375 PWs)   bands (ev):

     6.3389   6.4227   9.0870   9.0870   9.0940  11.2426  22.1613  23.9263
    23.9263  28.6637

          k = 0.9031-0.1290 0.9031 (   368 PWs)   bands (ev):

     6.3010   6.4539   8.9110   8.9686   9.3445  13.6168  19.7934  21.0344
    23.6631  28.6194

          k = 0.7741 0.0000 0.7741 (   377 PWs)   bands (ev):

     6.5102   6.8988   8.2630   8.7202   9.1773  16.3889  17.3252  18.9717
    24.8135  28.6776

          k = 0.0000-1.0321 0.0000 (   388 PWs)   bands (ev):

     6.1138   6.2400   9.1979   9.4261   9.4261  13.9301  18.4700  22.9191
    22.9191  28.5826

          k =-0.2580 0.5160-0.0000 (   370 PWs)   bands (ev):

     6.9076   7.0333   7.6706   8.3846   8.5598   9.7765  23.8185  24.0442
    28.3330  31.9889

          k = 0.6450-0.3870 0.9031 (   372 PWs)   bands (ev):

     6.8143   7.3252   7.6479   8.3023   8.9850  11.9062  19.2953  23.6901
    26.0645  31.5104

          k = 0.5160-0.2580 0.7741 (   378 PWs)   bands (ev):

     6.7618   7.1932   8.0079   8.1372   9.1724  14.4597  15.8971  24.2592
    24.6090  31.0946

          k = 0.7741-0.2580 1.0321 (   374 PWs)   bands (ev):

     6.6544   6.6733   8.1588   8.9463   9.0802  12.4100  21.7275  21.8940
    22.7944  31.2212

          k = 0.6450-0.1290 0.9031 (   381 PWs)   bands (ev):

     6.7219   6.9930   7.8578   8.6154   9.2791  15.4271  17.8586  20.6576
    22.5204  31.5164

          k = 0.5160 0.0000 0.7741 (   379 PWs)   bands (ev):

     6.9933   7.3330   7.3792   8.4870   9.0768  14.5335  18.8991  19.8549
    23.9749  32.0970

          k =-0.2580-1.0321 0.0000 (   374 PWs)   bands (ev):

     6.4076   6.5261   8.5970   8.9189   9.4266  15.2756  18.6085  21.0288
    21.3342  30.9548

          k =-0.5160-1.0321 0.0000 (   380 PWs)   bands (ev):

     6.8023   7.3617   7.3617   8.5356   9.4271  17.9955  17.9955  18.9154
    20.0904  35.5033

     the Fermi energy is    12.2186 ev

!    total energy              =     -73.63752177 Ry
     Harris-Foulkes estimate   =     -73.63752177 Ry
     estimated scf accuracy    <          1.2E-10 Ry

     The total energy is the sum of the following terms:

     one-electron contribution =      -4.70029381 Ry
     hartree contribution      =      13.15672009 Ry
     xc contribution           =     -11.63002541 Ry
     ewald contribution        =     -70.46209024 Ry
     smearing contrib. (-TS)   =      -0.00183240 Ry

     convergence has been achieved in  11 iterations

     Forces acting on atoms (Ry/au):

     atom    1 type  1   force =     0.00000000    0.00000000    0.00000000

     Total force =     0.000000     Total SCF correction =     0.000000


     entering subroutine stress ...

          total   stress  (Ry/bohr**3)                   (kbar)     P=    1.79
   0.00001219   0.00000000  -0.00000000          1.79      0.00     -0.00
   0.00000000   0.00001219  -0.00000000          0.00      1.79     -0.00
   0.00000000  -0.00000000   0.00001219          0.00     -0.00      1.79


     number of scf cycles    =   4
     number of bfgs steps    =   3

     enthalpy old            =     -73.6374754252 Ry
     enthalpy new            =     -73.6375217749 Ry

     CASE: enthalpy_new < enthalpy_old

     new trust radius        =       0.0014783190 bohr
     new conv_thr            =       0.0000000010 Ry

     new unit-cell volume =    122.25874 a.u.^3 (    18.11688 Ang^3 )

CELL_PARAMETERS (alat=  8.12582237)
  -0.484785165   0.000000000   0.484785165
  -0.000000000   0.484785165   0.484785165
  -0.484785165   0.484785165   0.000000000

ATOMIC_POSITIONS (alat)
Ag      -0.000000000   0.000000000   0.000000000



     Writing output data file ag.save
     NEW-OLD atomic charge density approx. for the potential

     negative rho (up, down):  6.675E-05 0.000E+00
     extrapolated charge   11.02205, renormalised to   11.00000

     total cpu time spent up to now is       35.3 secs

     per-process dynamical memory:     9.2 Mb

     Self-consistent Calculation

     iteration #  1     ecut=    30.00 Ry     beta=0.70
     Davidson diagonalization with overlap
     ethr =  1.00E-06,  avg # of iterations =  2.0

     negative rho (up, down):  6.638E-05 0.000E+00

     total cpu time spent up to now is       36.2 secs

     total energy              =     -73.63732466 Ry
     Harris-Foulkes estimate   =     -73.61501789 Ry
     estimated scf accuracy    <       0.00015762 Ry

     iteration #  2     ecut=    30.00 Ry     beta=0.70
     Davidson diagonalization with overlap
     ethr =  1.43E-06,  avg # of iterations =  2.0

     negative rho (up, down):  6.652E-05 0.000E+00

     total cpu time spent up to now is       37.0 secs

     total energy              =     -73.63750742 Ry
     Harris-Foulkes estimate   =     -73.63767217 Ry
     estimated scf accuracy    <       0.00045581 Ry

     iteration #  3     ecut=    30.00 Ry     beta=0.70
     Davidson diagonalization with overlap
     ethr =  1.43E-06,  avg # of iterations =  1.8

     negative rho (up, down):  6.655E-05 0.000E+00

     total cpu time spent up to now is       37.8 secs

     total energy              =     -73.63752997 Ry
     Harris-Foulkes estimate   =     -73.63754283 Ry
     estimated scf accuracy    <       0.00006140 Ry

     iteration #  4     ecut=    30.00 Ry     beta=0.70
     Davidson diagonalization with overlap
     ethr =  5.58E-07,  avg # of iterations =  1.0

     negative rho (up, down):  6.656E-05 0.000E+00

     total cpu time spent up to now is       38.5 secs

     total energy              =     -73.63752868 Ry
     Harris-Foulkes estimate   =     -73.63753158 Ry
     estimated scf accuracy    <       0.00002601 Ry

     iteration #  5     ecut=    30.00 Ry     beta=0.70
     Davidson diagonalization with overlap
     ethr =  2.36E-07,  avg # of iterations =  1.0

     negative rho (up, down):  6.657E-05 0.000E+00

     total cpu time spent up to now is       39.2 secs

     total energy              =     -73.63752610 Ry
     Harris-Foulkes estimate   =     -73.63752885 Ry
     estimated scf accuracy    <       0.00001752 Ry

     iteration #  6     ecut=    30.00 Ry     beta=0.70
     Davidson diagonalization with overlap
     ethr =  1.59E-07,  avg # of iterations =  1.0

     negative rho (up, down):  6.659E-05 0.000E+00

     total cpu time spent up to now is       39.8 secs

     total energy              =     -73.63752204 Ry
     Harris-Foulkes estimate   =     -73.63752633 Ry
     estimated scf accuracy    <       0.00000972 Ry

     iteration #  7     ecut=    30.00 Ry     beta=0.70
     Davidson diagonalization with overlap
     ethr =  8.83E-08,  avg # of iterations =  1.1

     negative rho (up, down):  6.660E-05 0.000E+00

     total cpu time spent up to now is       40.5 secs

     total energy              =     -73.63752313 Ry
     Harris-Foulkes estimate   =     -73.63752327 Ry
     estimated scf accuracy    <       0.00000035 Ry

     iteration #  8     ecut=    30.00 Ry     beta=0.70
     Davidson diagonalization with overlap
     ethr =  3.20E-09,  avg # of iterations =  1.4

     negative rho (up, down):  6.660E-05 0.000E+00

     total cpu time spent up to now is       41.2 secs

     total energy              =     -73.63752317 Ry
     Harris-Foulkes estimate   =     -73.63752318 Ry
     estimated scf accuracy    <       0.00000002 Ry

     iteration #  9     ecut=    30.00 Ry     beta=0.70
     Davidson diagonalization with overlap
     ethr =  1.91E-10,  avg # of iterations =  1.2

     negative rho (up, down):  6.659E-05 0.000E+00

     total cpu time spent up to now is       41.8 secs

     total energy              =     -73.63752317 Ry
     Harris-Foulkes estimate   =     -73.63752317 Ry
     estimated scf accuracy    <          5.3E-09 Ry

     iteration # 10     ecut=    30.00 Ry     beta=0.70
     Davidson diagonalization with overlap
     ethr =  4.79E-11,  avg # of iterations =  1.0

     negative rho (up, down):  6.659E-05 0.000E+00

     total cpu time spent up to now is       42.5 secs

     total energy              =     -73.63752317 Ry
     Harris-Foulkes estimate   =     -73.63752317 Ry
     estimated scf accuracy    <          1.4E-09 Ry

     iteration # 11     ecut=    30.00 Ry     beta=0.70
     Davidson diagonalization with overlap
     ethr =  1.29E-11,  avg # of iterations =  1.6

     negative rho (up, down):  6.659E-05 0.000E+00

     total cpu time spent up to now is       43.2 secs

     End of self-consistent calculation

          k = 0.0000 0.0000 0.0000 (   339 PWs)   bands (ev):

     4.8242   7.5642   7.5642   7.5642   8.4808   8.4808  29.7460  32.2160
    32.2160  32.2160

          k =-0.1289 0.1289-0.1289 (   362 PWs)   bands (ev):

     5.2740   7.4908   7.6721   7.6721   8.4528   8.4528  27.9152  30.3190
    31.8986  31.8986

          k =-0.2578 0.2578-0.2578 (   359 PWs)   bands (ev):

     6.1381   7.7445   7.7445   7.8329   8.6033   8.6033  22.9650  29.8593
    31.1927  31.1927

          k =-0.3868 0.3868-0.3868 (   362 PWs)   bands (ev):

     6.2075   7.6148   7.6148   9.0011   9.0011   9.8758  18.3272  28.9861
    30.3651  30.3651

          k = 0.5157-0.5157 0.5157 (   368 PWs)   bands (ev):

     6.1292   7.5408   7.5408   9.2010   9.2010  11.9616  15.4409  28.5979
    29.9592  29.9592

          k = 0.0000 0.2578 0.0000 (   359 PWs)   bands (ev):

     5.4261   7.3499   7.7782   7.7782   8.2867   8.5775  29.4039  29.8894
    29.8894  30.3764

          k =-0.1289 0.3868-0.1289 (   366 PWs)   bands (ev):

     6.2364   7.2246   7.8251   7.9490   8.5189   8.7345  24.9228  28.4978
    29.2528  31.3448

          k =-0.2578 0.5157-0.2578 (   366 PWs)   bands (ev):

     6.4698   7.5610   7.8801   7.8849   9.0695   9.9914  20.0863  27.8363
    28.2848  29.4464

          k = 0.6446-0.3868 0.6446 (   377 PWs)   bands (ev):

     6.3673   7.4113   7.7566   8.5093   9.2152  12.5194  16.0964  26.7672
    28.1479  28.8955

          k = 0.5157-0.2578 0.5157 (   374 PWs)   bands (ev):

     6.4231   7.4587   7.7517   8.5276   8.9510  11.7088  17.2727  25.8993
    29.3145  29.6314

          k = 0.3868-0.1289 0.3868 (   370 PWs)   bands (ev):

     6.5604   7.5345   7.8711   7.8861   8.4460   9.6504  21.6762  25.9135
    30.7103  32.1883

          k = 0.2578 0.0000 0.2578 (   367 PWs)   bands (ev):

     5.9421   7.3260   7.8154   7.8468   8.2573   8.7413  26.5422  26.7075
    32.1175  33.2026

          k = 0.0000 0.5157 0.0000 (   351 PWs)   bands (ev):

     6.5217   6.8582   8.3569   8.3569   8.5307   8.8156  26.4884  26.4884
    27.7746  28.9140

          k =-0.1289 0.6446-0.1289 (   372 PWs)   bands (ev):

     6.5809   6.8096   8.2089   8.4539   9.1003  10.3199  22.4162  25.1636
    25.4262  28.7804

          k = 0.7735-0.2578 0.7735 (   370 PWs)   bands (ev):

     6.5594   7.0746   8.0242   8.3173   9.2527  13.1275  18.0667  23.0105
    25.5660  28.6538

          k = 0.6446-0.1289 0.6446 (   374 PWs)   bands (ev):

     6.7641   7.2798   7.8483   8.2061   8.9777  14.2667  16.9225  21.6164
    26.9775  28.8943

          k = 0.5157 0.0000 0.5157 (   373 PWs)   bands (ev):

     7.0802   7.2808   7.6530   8.1517   8.5123  11.5798  21.0843  21.2378
    29.3862  29.6979

          k = 0.0000 0.7735 0.0000 (   375 PWs)   bands (ev):

     6.3154   6.3986   9.0535   9.0535   9.0604  11.2104  22.1100  23.8771
    23.8771  28.6046

          k = 0.9025-0.1289 0.9025 (   368 PWs)   bands (ev):

     6.2775   6.4298   8.8786   8.9355   9.3101  13.5809  19.7438  20.9885
    23.6144  28.5619

          k = 0.7735 0.0000 0.7735 (   377 PWs)   bands (ev):

     6.4859   6.8735   8.2331   8.6881   9.1435  16.3489  17.2820  18.9239
    24.7625  28.6215

          k = 0.0000-1.0314 0.0000 (   388 PWs)   bands (ev):

     6.0910   6.2165   9.1639   9.3914   9.3914  13.8965  18.4205  22.8721
    22.8721  28.5231

          k =-0.2578 0.5157-0.0000 (   370 PWs)   bands (ev):

     6.8827   7.0072   7.6423   8.3537   8.5287   9.7429  23.7672  23.9928
    28.2780  31.9323

          k = 0.6446-0.3868 0.9025 (   372 PWs)   bands (ev):

     6.7891   7.2983   7.6201   8.2719   8.9520  11.8703  19.2489  23.6391
    26.0113  31.4529

          k = 0.5157-0.2578 0.7735 (   378 PWs)   bands (ev):

     6.7367   7.1667   7.9790   8.1072   9.1386  14.4229  15.8527  24.2059
    24.5589  31.0387

          k = 0.7735-0.2578 1.0314 (   374 PWs)   bands (ev):

     6.6299   6.6484   8.1292   8.9135   9.0467  12.3741  21.6773  21.8460
    22.7452  31.1637

          k = 0.6446-0.1289 0.9025 (   381 PWs)   bands (ev):

     6.6970   6.9673   7.8291   8.5837   9.2449  15.3870  17.8146  20.6088
    22.4717  31.4580

          k = 0.5157 0.0000 0.7735 (   379 PWs)   bands (ev):

     6.9675   7.3063   7.3521   8.4558   9.0434  14.4939  18.8548  19.8068
    23.9238  32.0387

          k =-0.2578-1.0314 0.0000 (   374 PWs)   bands (ev):

     6.3839   6.5017   8.5657   8.8861   9.3919  15.2382  18.5593  20.9826
    21.2877  30.8970

          k =-0.5157-1.0314 0.0000 (   380 PWs)   bands (ev):

     6.7774   7.3347   7.3347   8.5042   9.3923  17.9529  17.9529  18.8659
    20.0448  35.4422

     the Fermi energy is    12.1834 ev

!    total energy              =     -73.63752317 Ry
     Harris-Foulkes estimate   =     -73.63752317 Ry
     estimated scf accuracy    <          1.3E-12 Ry

     The total energy is the sum of the following terms:

     one-electron contribution =      -4.77141369 Ry
     hartree contribution      =      13.17986967 Ry
     xc contribution           =     -11.62917741 Ry
     ewald contribution        =     -70.41497093 Ry
     smearing contrib. (-TS)   =      -0.00183080 Ry

     convergence has been achieved in  11 iterations

     Forces acting on atoms (Ry/au):

     atom    1 type  1   force =     0.00000000    0.00000000    0.00000000

     Total force =     0.000000     Total SCF correction =     0.000000


     entering subroutine stress ...

          total   stress  (Ry/bohr**3)                   (kbar)     P=   -0.06
  -0.00000043  -0.00000000  -0.00000000         -0.06     -0.00     -0.00
  -0.00000000  -0.00000043   0.00000000         -0.00     -0.06      0.00
   0.00000000   0.00000000  -0.00000043          0.00      0.00     -0.06


     bfgs converged in   5 scf cycles and   4 bfgs steps
     (criteria: energy <  1.0E-05, force <  1.0E-04, cell <  1.0E-01)

     End of BFGS Geometry Optimization

     Final enthalpy =     -73.6375231701 Ry
Begin final coordinates
     new unit-cell volume =    122.25874 a.u.^3 (    18.11688 Ang^3 )

CELL_PARAMETERS (alat=  8.12582237)
  -0.484785165   0.000000000   0.484785165
  -0.000000000   0.484785165   0.484785165
  -0.484785165   0.484785165   0.000000000

ATOMIC_POSITIONS (alat)
Ag      -0.000000000   0.000000000   0.000000000
End final coordinates



     A final scf calculation at the relaxed structure.
     The G-vectors are recalculated for the final unit cell
     Results may differ from those at the preceding step.

   Info: using nr1, nr2, nr3 values from input

   Info: using nr1, nr2, nr3 values from input

     Parallelization info
     --------------------
     sticks:   dense  smooth     PW     G-vecs:    dense   smooth      PW
     Min         126     126     42                 1365     1365     267
     Max         127     127     43                 1368     1368     270
     Sum         253     253     85                 2733     2733     537



     bravais-lattice index     =            2
     lattice parameter (alat)  =       8.1258  a.u.
     unit-cell volume          =     122.2587 (a.u.)^3
     number of atoms/cell      =            1
     number of atomic types    =            1
     number of electrons       =        11.00
     number of Kohn-Sham states=           10
     kinetic-energy cutoff     =      30.0000  Ry
     charge density cutoff     =     120.0000  Ry
     convergence threshold     =      1.0E-09
     mixing beta               =       0.7000
     number of iterations used =            8  plain     mixing
     Exchange-correlation      =  SLA  PW   PBE  PBE ( 1  4  3  4 0 0)

     celldm(1)=   8.125822  celldm(2)=   0.000000  celldm(3)=   0.000000
     celldm(4)=   0.000000  celldm(5)=   0.000000  celldm(6)=   0.000000

     crystal axes: (cart. coord. in units of alat)
               a(1) = (  -0.484785   0.000000   0.484785 )  
               a(2) = (  -0.000000   0.484785   0.484785 )  
               a(3) = (  -0.484785   0.484785   0.000000 )  

     reciprocal axes: (cart. coord. in units 2 pi/alat)
               b(1) = ( -1.031385 -1.031385  1.031385 )  
               b(2) = (  1.031385  1.031385  1.031385 )  
               b(3) = ( -1.031385  1.031385 -1.031385 )  


     PseudoPot. # 1 for Ag read from file:
     pseudo/Ag.pbe-d-rrkjus.UPF
     MD5 check sum: a803b9d7d63641d413c5e0e7f96cb77f
     Pseudo is Ultrasoft, Zval = 11.0
     Generated by new atomic code, or converted to UPF format
     Using radial grid of 1495 points,  3 beta functions with: 
                l(1) =   1
                l(2) =   2
                l(3) =   2
     Q(r) pseudized with 0 coefficients 


     atomic species   valence    mass     pseudopotential
        Ag            11.00   107.86820     Ag( 1.00)

     48 Sym. Ops., with inversion, found



   Cartesian axes

     site n.     atom                  positions (alat units)
         1           Ag  tau(   1) = (  -0.0000000   0.0000000   0.0000000  )

     number of k points=    29  Marzari-Vanderbilt smearing, width (Ry)=  0.0500
                       cart. coord. in units 2pi/alat
        k(    1) = (   0.0000000   0.0000000   0.0000000), wk =   0.0039062
        k(    2) = (  -0.1289231   0.1289231  -0.1289231), wk =   0.0312500
        k(    3) = (  -0.2578462   0.2578462  -0.2578462), wk =   0.0312500
        k(    4) = (  -0.3867693   0.3867693  -0.3867693), wk =   0.0312500
        k(    5) = (   0.5156923  -0.5156923   0.5156923), wk =   0.0156250
        k(    6) = (   0.0000000   0.2578462   0.0000000), wk =   0.0234375
        k(    7) = (  -0.1289231   0.3867693  -0.1289231), wk =   0.0937500
        k(    8) = (  -0.2578462   0.5156923  -0.2578462), wk =   0.0937500
        k(    9) = (   0.6446154  -0.3867693   0.6446154), wk =   0.0937500
        k(   10) = (   0.5156923  -0.2578462   0.5156923), wk =   0.0937500
        k(   11) = (   0.3867693  -0.1289231   0.3867693), wk =   0.0937500
        k(   12) = (   0.2578462   0.0000000   0.2578462), wk =   0.0468750
        k(   13) = (   0.0000000   0.5156923   0.0000000), wk =   0.0234375
        k(   14) = (  -0.1289231   0.6446154  -0.1289231), wk =   0.0937500
        k(   15) = (   0.7735385  -0.2578462   0.7735385), wk =   0.0937500
        k(   16) = (   0.6446154  -0.1289231   0.6446154), wk =   0.0937500
        k(   17) = (   0.5156923   0.0000000   0.5156923), wk =   0.0468750
        k(   18) = (   0.0000000   0.7735385   0.0000000), wk =   0.0234375
        k(   19) = (   0.9024616  -0.1289231   0.9024616), wk =   0.0937500
        k(   20) = (   0.7735385   0.0000000   0.7735385), wk =   0.0468750
        k(   21) = (   0.0000000  -1.0313847   0.0000000), wk =   0.0117188
        k(   22) = (  -0.2578462   0.5156923  -0.0000000), wk =   0.0937500
        k(   23) = (   0.6446154  -0.3867693   0.9024616), wk =   0.1875000
        k(   24) = (   0.5156923  -0.2578462   0.7735385), wk =   0.0937500
        k(   25) = (   0.7735385  -0.2578462   1.0313847), wk =   0.0937500
        k(   26) = (   0.6446154  -0.1289231   0.9024616), wk =   0.1875000
        k(   27) = (   0.5156923   0.0000000   0.7735385), wk =   0.0937500
        k(   28) = (  -0.2578462  -1.0313847   0.0000000), wk =   0.0468750
        k(   29) = (  -0.5156923  -1.0313847   0.0000000), wk =   0.0234375

     Dense  grid:     2733 G-vectors     FFT dimensions: (  24,  24,  24)

     Estimated max dynamical RAM per process >       2.09Mb

     Estimated total allocated dynamical RAM >       4.17Mb

     Initial potential from superposition of free atoms

     starting charge   10.99957, renormalised to   11.00000

     negative rho (up, down):  9.305E-05 0.000E+00
     Starting wfc are    6 randomized atomic wfcs +    4 random wfc

     Writing output data file ag.save

     total cpu time spent up to now is       44.7 secs

     per-process dynamical memory:     9.2 Mb

     Self-consistent Calculation

     iteration #  1     ecut=    30.00 Ry     beta=0.70
     Davidson diagonalization with overlap
     ethr =  1.00E-06,  avg # of iterations =  9.4

     negative rho (up, down):  9.961E-05 0.000E+00

     total cpu time spent up to now is       46.5 secs

     total energy              =     -73.61283784 Ry
     Harris-Foulkes estimate   =     -73.65542488 Ry
     estimated scf accuracy    <       0.06223751 Ry

     iteration #  2     ecut=    30.00 Ry     beta=0.70
     Davidson diagonalization with overlap
     ethr =  5.66E-04,  avg # of iterations =  2.0

     negative rho (up, down):  1.051E-04 0.000E+00

     total cpu time spent up to now is       47.1 secs

     total energy              =     -73.63154537 Ry
     Harris-Foulkes estimate   =     -73.64783594 Ry
     estimated scf accuracy    <       0.03113799 Ry

     iteration #  3     ecut=    30.00 Ry     beta=0.70
     Davidson diagonalization with overlap
     ethr =  2.83E-04,  avg # of iterations =  1.5

     negative rho (up, down):  1.084E-04 0.000E+00

     total cpu time spent up to now is       47.7 secs

     total energy              =     -73.63733846 Ry
     Harris-Foulkes estimate   =     -73.63733197 Ry
     estimated scf accuracy    <       0.00003845 Ry

     iteration #  4     ecut=    30.00 Ry     beta=0.70
     Davidson diagonalization with overlap
     ethr =  3.50E-07,  avg # of iterations =  2.6

     negative rho (up, down):  1.088E-04 0.000E+00

     total cpu time spent up to now is       48.4 secs

     total energy              =     -73.63737485 Ry
     Harris-Foulkes estimate   =     -73.63737643 Ry
     estimated scf accuracy    <       0.00000773 Ry

     iteration #  5     ecut=    30.00 Ry     beta=0.70
     Davidson diagonalization with overlap
     ethr =  7.03E-08,  avg # of iterations =  1.0

     negative rho (up, down):  1.087E-04 0.000E+00

     total cpu time spent up to now is       49.0 secs

     total energy              =     -73.63737521 Ry
     Harris-Foulkes estimate   =     -73.63737538 Ry
     estimated scf accuracy    <       0.00000034 Ry

     iteration #  6     ecut=    30.00 Ry     beta=0.70
     Davidson diagonalization with overlap
     ethr =  3.12E-09,  avg # of iterations =  2.0

     negative rho (up, down):  1.087E-04 0.000E+00

     total cpu time spent up to now is       49.8 secs

     total energy              =     -73.63737530 Ry
     Harris-Foulkes estimate   =     -73.63737530 Ry
     estimated scf accuracy    <       0.00000001 Ry

     iteration #  7     ecut=    30.00 Ry     beta=0.70
     Davidson diagonalization with overlap
     ethr =  1.12E-10,  avg # of iterations =  1.6

     negative rho (up, down):  1.087E-04 0.000E+00

     total cpu time spent up to now is       50.4 secs

     End of self-consistent calculation

          k = 0.0000 0.0000 0.0000 (   331 PWs)   bands (ev):

     4.8255   7.5647   7.5647   7.5647   8.4808   8.4808  29.7477  32.2168
    32.2168  32.2168

          k =-0.1289 0.1289-0.1289 (   335 PWs)   bands (ev):

     5.2754   7.4912   7.6726   7.6726   8.4532   8.4532  27.9166  30.3209
    31.8995  31.8995

          k =-0.2578 0.2578-0.2578 (   332 PWs)   bands (ev):

     6.1393   7.7449   7.7449   7.8337   8.6040   8.6040  22.9661  29.8619
    31.1934  31.1934

          k =-0.3868 0.3868-0.3868 (   338 PWs)   bands (ev):

     6.2083   7.6151   7.6151   9.0017   9.0017   9.8770  18.3282  28.9891
    30.3656  30.3656

          k = 0.5157-0.5157 0.5157 (   344 PWs)   bands (ev):

     6.1298   7.5411   7.5411   9.2016   9.2016  11.9632  15.4414  28.6010
    29.9598  29.9598

          k = 0.0000 0.2578 0.0000 (   335 PWs)   bands (ev):

     5.4276   7.3502   7.7788   7.7788   8.2870   8.5776  29.4055  29.8905
    29.8905  30.3789

          k =-0.1289 0.3868-0.1289 (   335 PWs)   bands (ev):

     6.2378   7.2252   7.8257   7.9495   8.5195   8.7349  24.9241  28.4987
    29.2552  31.3463

          k =-0.2578 0.5157-0.2578 (   332 PWs)   bands (ev):

     6.4707   7.5615   7.8807   7.8858   9.0701   9.9925  20.0875  27.8371
    28.2873  29.4475

          k = 0.6446-0.3868 0.6446 (   341 PWs)   bands (ev):

     6.3680   7.4117   7.7570   8.5100   9.2159  12.5208  16.0974  26.7689
    28.1487  28.8974

          k = 0.5157-0.2578 0.5157 (   340 PWs)   bands (ev):

     6.4239   7.4592   7.7522   8.5284   8.9515  11.7100  17.2737  25.9007
    29.3168  29.6322

          k = 0.3868-0.1289 0.3868 (   339 PWs)   bands (ev):

     6.5614   7.5351   7.8718   7.8866   8.4464   9.6512  21.6774  25.9149
    30.7126  32.1890

          k = 0.2578 0.0000 0.2578 (   337 PWs)   bands (ev):

     5.9434   7.3266   7.8158   7.8475   8.2577   8.7417  26.5437  26.7090
    32.1189  33.2052

          k = 0.0000 0.5157 0.0000 (   343 PWs)   bands (ev):

     6.5227   6.8586   8.3573   8.3573   8.5312   8.8157  26.4891  26.4891
    27.7768  28.9154

          k =-0.1289 0.6446-0.1289 (   333 PWs)   bands (ev):

     6.5817   6.8104   8.2097   8.4543   9.1009  10.3209  22.4174  25.1652
    25.4271  28.7825

          k = 0.7735-0.2578 0.7735 (   338 PWs)   bands (ev):

     6.5601   7.0753   8.0250   8.3178   9.2533  13.1286  18.0677  23.0119
    25.5668  28.6559

          k = 0.6446-0.1289 0.6446 (   343 PWs)   bands (ev):

     6.7647   7.2804   7.8491   8.2066   8.9782  14.2679  16.9236  21.6176
    26.9783  28.8966

          k = 0.5157 0.0000 0.5157 (   339 PWs)   bands (ev):

     7.0808   7.2815   7.6537   8.1521   8.5131  11.5809  21.0855  21.2390
    29.3871  29.7003

          k = 0.0000 0.7735 0.0000 (   327 PWs)   bands (ev):

     6.3163   6.3993   9.0545   9.0545   9.0609  11.2115  22.1114  23.8779
    23.8779  28.6073

          k = 0.9025-0.1289 0.9025 (   338 PWs)   bands (ev):

     6.2781   6.4305   8.8793   8.9361   9.3107  13.5819  19.7448  20.9898
    23.6152  28.5640

          k = 0.7735 0.0000 0.7735 (   347 PWs)   bands (ev):

     6.4865   6.8742   8.2338   8.6884   9.1440  16.3499  17.2830  18.9253
    24.7632  28.6238

          k = 0.0000-1.0314 0.0000 (   342 PWs)   bands (ev):

     6.0916   6.2171   9.1644   9.3920   9.3920  13.8976  18.4221  22.8729
    22.8729  28.5258

          k =-0.2578 0.5157-0.0000 (   336 PWs)   bands (ev):

     6.8838   7.0079   7.6428   8.3542   8.5291   9.7436  23.7685  23.9940
    28.2797  31.9337

          k = 0.6446-0.3868 0.9025 (   338 PWs)   bands (ev):

     6.7899   7.2989   7.6209   8.2724   8.9525  11.8714  19.2501  23.6402
    26.0129  31.4547

          k = 0.5157-0.2578 0.7735 (   346 PWs)   bands (ev):

     6.7373   7.1673   7.9796   8.1077   9.1393  14.4243  15.8536  24.2066
    24.5609  31.0405

          k = 0.7735-0.2578 1.0314 (   340 PWs)   bands (ev):

     6.6307   6.6490   8.1298   8.9138   9.0473  12.3751  21.6780  21.8471
    22.7471  31.1652

          k = 0.6446-0.1289 0.9025 (   341 PWs)   bands (ev):

     6.6977   6.9681   7.8299   8.5842   9.2456  15.3881  17.8158  20.6101
    22.4732  31.4599

          k = 0.5157 0.0000 0.7735 (   344 PWs)   bands (ev):

     6.9682   7.3070   7.3528   8.4562   9.0440  14.4951  18.8559  19.8080
    23.9253  32.0405

          k =-0.2578-1.0314 0.0000 (   342 PWs)   bands (ev):

     6.3846   6.5024   8.5665   8.8864   9.3925  15.2392  18.5604  20.9837
    21.2891  30.8985

          k =-0.5157-1.0314 0.0000 (   328 PWs)   bands (ev):

     6.7782   7.3356   7.3356   8.5051   9.3934  17.9541  17.9541  18.8667
    20.0471  35.4437

     the Fermi energy is    12.1846 ev

!    total energy              =     -73.63737530 Ry
     Harris-Foulkes estimate   =     -73.63737530 Ry
     estimated scf accuracy    <          5.3E-11 Ry

     The total energy is the sum of the following terms:

     one-electron contribution =      -4.77177127 Ry
     hartree contribution      =      13.18019220 Ry
     xc contribution           =     -11.62899462 Ry
     ewald contribution        =     -70.41497095 Ry
     smearing contrib. (-TS)   =      -0.00183066 Ry

     convergence has been achieved in   7 iterations

     Forces acting on atoms (Ry/au):

     atom    1 type  1   force =     0.00000000    0.00000000    0.00000000

     Total force =     0.000000     Total SCF correction =     0.000000


     entering subroutine stress ...

          total   stress  (Ry/bohr**3)                   (kbar)     P=   -1.50
  -0.00001019  -0.00000000   0.00000000         -1.50     -0.00      0.00
  -0.00000000  -0.00001019   0.00000000         -0.00     -1.50      0.00
   0.00000000  -0.00000000  -0.00001019          0.00     -0.00     -1.50


     Writing output data file ag.save

     init_run     :      1.41s CPU      1.56s WALL (       2 calls)
     electrons    :     28.05s CPU     44.88s WALL (       6 calls)
     update_pot   :      0.59s CPU      0.60s WALL (       4 calls)
     forces       :      0.44s CPU      0.50s WALL (       6 calls)
     stress       :      1.64s CPU      2.35s WALL (       6 calls)

     Called by init_run:
     wfcinit      :      0.32s CPU      0.42s WALL (       2 calls)
     potinit      :      0.06s CPU      0.06s WALL (       2 calls)

     Called by electrons:
     c_bands      :     21.41s CPU     35.37s WALL (      58 calls)
     sum_band     :      5.28s CPU      7.56s WALL (      58 calls)
     v_of_rho     :      0.75s CPU      1.04s WALL (      63 calls)
     newd         :      0.53s CPU      0.76s WALL (      63 calls)
     mix_rho      :      0.06s CPU      0.09s WALL (      58 calls)

     Called by c_bands:
     init_us_2    :      0.42s CPU      0.62s WALL (    3770 calls)
     cegterg      :     21.07s CPU     34.83s WALL (    1682 calls)

     Called by sum_band:
     sum_band:bec :      0.01s CPU      0.04s WALL (    1682 calls)
     addusdens    :      0.61s CPU      0.92s WALL (      58 calls)

     Called by *egterg:
     h_psi        :     13.87s CPU     16.54s WALL (    4803 calls)
     s_psi        :      0.22s CPU      0.19s WALL (    4803 calls)
     g_psi        :      0.04s CPU      0.06s WALL (    3063 calls)
     cdiaghg      :      6.44s CPU     17.40s WALL (    4600 calls)

     Called by h_psi:
     h_psi:pot    :     13.82s CPU     16.48s WALL (    4803 calls)
     h_psi:calbec :      0.22s CPU      0.22s WALL (    4803 calls)
     vloc_psi     :     13.42s CPU     16.02s WALL (    4803 calls)
     add_vuspsi   :      0.17s CPU      0.20s WALL (    4803 calls)

     General routines
     calbec       :      0.64s CPU      0.74s WALL (    7355 calls)
     fft          :      0.64s CPU      0.95s WALL (     868 calls)
     fftw         :     16.12s CPU     20.06s WALL (   98342 calls)
     davcio       :      0.00s CPU      0.00s WALL (      58 calls)

     Parallel routines
     fft_scatter  :      2.22s CPU      2.81s WALL (   99210 calls)

     PWSCF        :    32.97s CPU        50.91s WALL


   This run was terminated on:  22:14:53  25Jan2017            

=------------------------------------------------------------------------------=
   JOB DONE.
=------------------------------------------------------------------------------=
