
     Program PWSCF v.6.0 (svn rev. 13079) starts on 25Jan2017 at 22:15:22 

     This program is part of the open-source Quantum ESPRESSO suite
     for quantum simulation of materials; please cite
         "P. Giannozzi et al., J. Phys.:Condens. Matter 21 395502 (2009);
          URL http://www.quantum-espresso.org", 
     in publications or presentations arising from this work. More details at
     http://www.quantum-espresso.org/quote

     Parallel version (MPI), running on     2 processors
     R & G space division:  proc/nbgrp/npool/nimage =       2
     Waiting for input...
     Reading input from standard input
     Message from routine read_cards :
     DEPRECATED: no units specified in ATOMIC_POSITIONS card
     Message from routine read_cards :
     ATOMIC_POSITIONS: units set to alat

     Current dimensions of program PWSCF are:
     Max number of different atomic species (ntypx) = 10
     Max number of k-points (npk) =  40000
     Max angular momentum in pseudopotentials (lmaxx) =  3

     Subspace diagonalization in iterative solution of the eigenvalue problem:
     a serial algorithm will be used


     Parallelization info
     --------------------
     sticks:   dense  smooth     PW     G-vecs:    dense   smooth      PW
     Min         174     174     60                 2055     2055     434
     Max         175     175     61                 2056     2056     435
     Sum         349     349    121                 4111     4111     869



     bravais-lattice index     =            2
     lattice parameter (alat)  =       7.8664  a.u.
     unit-cell volume          =     121.6946 (a.u.)^3
     number of atoms/cell      =            1
     number of atomic types    =            1
     number of electrons       =        11.00
     number of Kohn-Sham states=           10
     kinetic-energy cutoff     =      40.0000  Ry
     charge density cutoff     =     160.0000  Ry
     convergence threshold     =      1.0E-06
     mixing beta               =       0.7000
     number of iterations used =            8  plain     mixing
     Exchange-correlation      =  SLA  PW   PBE  PBE ( 1  4  3  4 0 0)

     celldm(1)=   7.866420  celldm(2)=   0.000000  celldm(3)=   0.000000
     celldm(4)=   0.000000  celldm(5)=   0.000000  celldm(6)=   0.000000

     crystal axes: (cart. coord. in units of alat)
               a(1) = (  -0.500000   0.000000   0.500000 )  
               a(2) = (   0.000000   0.500000   0.500000 )  
               a(3) = (  -0.500000   0.500000   0.000000 )  

     reciprocal axes: (cart. coord. in units 2 pi/alat)
               b(1) = ( -1.000000 -1.000000  1.000000 )  
               b(2) = (  1.000000  1.000000  1.000000 )  
               b(3) = ( -1.000000  1.000000 -1.000000 )  


     PseudoPot. # 1 for Ag read from file:
     pseudo/Ag.pbe-d-rrkjus.UPF
     MD5 check sum: a803b9d7d63641d413c5e0e7f96cb77f
     Pseudo is Ultrasoft, Zval = 11.0
     Generated by new atomic code, or converted to UPF format
     Using radial grid of 1495 points,  3 beta functions with: 
                l(1) =   1
                l(2) =   2
                l(3) =   2
     Q(r) pseudized with 0 coefficients 


     atomic species   valence    mass     pseudopotential
        Ag            11.00   107.86820     Ag( 1.00)

     48 Sym. Ops., with inversion, found



   Cartesian axes

     site n.     atom                  positions (alat units)
         1           Ag  tau(   1) = (   0.0000000   0.0000000   0.0000000  )

     number of k points=    47  Marzari-Vanderbilt smearing, width (Ry)=  0.0500
                       cart. coord. in units 2pi/alat
        k(    1) = (   0.0000000   0.0000000   0.0000000), wk =   0.0020000
        k(    2) = (  -0.1000000   0.1000000  -0.1000000), wk =   0.0160000
        k(    3) = (  -0.2000000   0.2000000  -0.2000000), wk =   0.0160000
        k(    4) = (  -0.3000000   0.3000000  -0.3000000), wk =   0.0160000
        k(    5) = (  -0.4000000   0.4000000  -0.4000000), wk =   0.0160000
        k(    6) = (   0.5000000  -0.5000000   0.5000000), wk =   0.0080000
        k(    7) = (   0.0000000   0.2000000   0.0000000), wk =   0.0120000
        k(    8) = (  -0.1000000   0.3000000  -0.1000000), wk =   0.0480000
        k(    9) = (  -0.2000000   0.4000000  -0.2000000), wk =   0.0480000
        k(   10) = (  -0.3000000   0.5000000  -0.3000000), wk =   0.0480000
        k(   11) = (   0.6000000  -0.4000000   0.6000000), wk =   0.0480000
        k(   12) = (   0.5000000  -0.3000000   0.5000000), wk =   0.0480000
        k(   13) = (   0.4000000  -0.2000000   0.4000000), wk =   0.0480000
        k(   14) = (   0.3000000  -0.1000000   0.3000000), wk =   0.0480000
        k(   15) = (   0.2000000   0.0000000   0.2000000), wk =   0.0240000
        k(   16) = (   0.0000000   0.4000000   0.0000000), wk =   0.0120000
        k(   17) = (  -0.1000000   0.5000000  -0.1000000), wk =   0.0480000
        k(   18) = (  -0.2000000   0.6000000  -0.2000000), wk =   0.0480000
        k(   19) = (   0.7000000  -0.3000000   0.7000000), wk =   0.0480000
        k(   20) = (   0.6000000  -0.2000000   0.6000000), wk =   0.0480000
        k(   21) = (   0.5000000  -0.1000000   0.5000000), wk =   0.0480000
        k(   22) = (   0.4000000   0.0000000   0.4000000), wk =   0.0240000
        k(   23) = (   0.0000000   0.6000000   0.0000000), wk =   0.0120000
        k(   24) = (  -0.1000000   0.7000000  -0.1000000), wk =   0.0480000
        k(   25) = (   0.8000000  -0.2000000   0.8000000), wk =   0.0480000
        k(   26) = (   0.7000000  -0.1000000   0.7000000), wk =   0.0480000
        k(   27) = (   0.6000000  -0.0000000   0.6000000), wk =   0.0240000
        k(   28) = (   0.0000000   0.8000000   0.0000000), wk =   0.0120000
        k(   29) = (   0.9000000  -0.1000000   0.9000000), wk =   0.0480000
        k(   30) = (   0.8000000   0.0000000   0.8000000), wk =   0.0240000
        k(   31) = (   0.0000000  -1.0000000   0.0000000), wk =   0.0060000
        k(   32) = (  -0.2000000   0.4000000   0.0000000), wk =   0.0480000
        k(   33) = (  -0.3000000   0.5000000  -0.1000000), wk =   0.0960000
        k(   34) = (   0.6000000  -0.4000000   0.8000000), wk =   0.0960000
        k(   35) = (   0.5000000  -0.3000000   0.7000000), wk =   0.0480000
        k(   36) = (  -0.2000000   0.6000000   0.0000000), wk =   0.0480000
        k(   37) = (   0.7000000  -0.3000000   0.9000000), wk =   0.0960000
        k(   38) = (   0.6000000  -0.2000000   0.8000000), wk =   0.0960000
        k(   39) = (   0.5000000  -0.1000000   0.7000000), wk =   0.0960000
        k(   40) = (   0.4000000   0.0000000   0.6000000), wk =   0.0480000
        k(   41) = (   0.8000000  -0.2000000   1.0000000), wk =   0.0480000
        k(   42) = (   0.7000000  -0.1000000   0.9000000), wk =   0.0960000
        k(   43) = (   0.6000000   0.0000000   0.8000000), wk =   0.0480000
        k(   44) = (  -0.2000000  -1.0000000   0.0000000), wk =   0.0240000
        k(   45) = (   0.6000000  -0.2000000   1.0000000), wk =   0.0480000
        k(   46) = (   0.5000000  -0.1000000   0.9000000), wk =   0.0480000
        k(   47) = (  -0.4000000  -1.0000000   0.0000000), wk =   0.0240000

     Dense  grid:     4111 G-vectors     FFT dimensions: (  24,  24,  24)

     Estimated max dynamical RAM per process >       3.62Mb

     Estimated total allocated dynamical RAM >       7.24Mb

     Initial potential from superposition of free atoms

     starting charge   10.99957, renormalised to   11.00000
     Starting wfc are    6 randomized atomic wfcs +    4 random wfc

     total cpu time spent up to now is        0.8 secs

     per-process dynamical memory:     8.9 Mb

     Self-consistent Calculation

     iteration #  1     ecut=    40.00 Ry     beta=0.70
     Davidson diagonalization with overlap
     ethr =  1.00E-02,  avg # of iterations =  4.7

     Threshold (ethr) on eigenvalues was too large:
     Diagonalizing with lowered threshold

     Davidson diagonalization with overlap
     ethr =  5.68E-04,  avg # of iterations =  1.1

     total cpu time spent up to now is        3.8 secs

     total energy              =     -73.61411548 Ry
     Harris-Foulkes estimate   =     -73.65695024 Ry
     estimated scf accuracy    <       0.06253096 Ry

     iteration #  2     ecut=    40.00 Ry     beta=0.70
     Davidson diagonalization with overlap
     ethr =  5.68E-04,  avg # of iterations =  2.0

     total cpu time spent up to now is        5.0 secs

     total energy              =     -73.63292811 Ry
     Harris-Foulkes estimate   =     -73.64914422 Ry
     estimated scf accuracy    <       0.03095578 Ry

     iteration #  3     ecut=    40.00 Ry     beta=0.70
     Davidson diagonalization with overlap
     ethr =  2.81E-04,  avg # of iterations =  1.5

     total cpu time spent up to now is        6.2 secs

     total energy              =     -73.63869585 Ry
     Harris-Foulkes estimate   =     -73.63868802 Ry
     estimated scf accuracy    <       0.00003834 Ry

     iteration #  4     ecut=    40.00 Ry     beta=0.70
     Davidson diagonalization with overlap
     ethr =  3.49E-07,  avg # of iterations =  2.8

     total cpu time spent up to now is        7.6 secs

     total energy              =     -73.63873234 Ry
     Harris-Foulkes estimate   =     -73.63873393 Ry
     estimated scf accuracy    <       0.00000759 Ry

     iteration #  5     ecut=    40.00 Ry     beta=0.70
     Davidson diagonalization with overlap
     ethr =  6.90E-08,  avg # of iterations =  1.0

     total cpu time spent up to now is        8.7 secs

     End of self-consistent calculation

          k = 0.0000 0.0000 0.0000 (   531 PWs)   bands (ev):

     4.8709   7.6315   7.6315   7.6315   8.5558   8.5558  29.8534  32.3504
    32.3504  32.3504

          k =-0.1000 0.1000-0.1000 (   534 PWs)   bands (ev):

     5.1655   7.5766   7.7063   7.7063   8.5328   8.5328  28.9069  30.5441
    32.1411  32.1411

          k =-0.2000 0.2000-0.2000 (   525 PWs)   bands (ev):

     5.8939   7.6030   7.8176   7.8176   8.5715   8.5715  25.0733  30.2418
    31.6454  31.6454

          k =-0.3000 0.3000-0.3000 (   522 PWs)   bands (ev):

     6.2981   7.7692   7.7692   8.5333   8.8352   8.8352  21.1450  29.6101
    30.9968  30.9968

          k =-0.4000 0.4000-0.4000 (   516 PWs)   bands (ev):

     6.2385   7.6570   7.6570   9.1487   9.1487  10.4765  17.6095  28.9560
    30.3677  30.3677

          k = 0.5000-0.5000 0.5000 (   502 PWs)   bands (ev):

     6.1843   7.6077   7.6077   9.2819   9.2819  12.0302  15.5445  28.7017
    30.0973  30.0973

          k = 0.0000 0.2000 0.0000 (   532 PWs)   bands (ev):

     5.2646   7.4897   7.7706   7.7706   8.4211   8.6192  29.6202  30.6954
    30.6954  30.9581

          k =-0.1000 0.3000-0.1000 (   526 PWs)   bands (ev):

     5.8723   7.3660   7.9013   7.9184   8.3993   8.7005  26.6195  29.5594
    29.7173  32.2774

          k =-0.2000 0.4000-0.2000 (   525 PWs)   bands (ev):

     6.4424   7.6228   7.7916   7.9393   8.9234   8.9808  22.6210  28.7898
    29.2358  31.2621

          k =-0.3000 0.5000-0.3000 (   520 PWs)   bands (ev):

     6.4249   7.6078   7.8371   8.3514   9.1958  10.4467  18.9006  28.4818
    28.5118  29.7054

          k = 0.6000-0.4000 0.6000 (   524 PWs)   bands (ev):

     6.3457   7.5184   7.7486   8.7863   9.2912  12.4417  15.9582  27.5883
    28.7978  29.1216

          k = 0.5000-0.3000 0.5000 (   522 PWs)   bands (ev):

     6.3753   7.5511   7.7464   8.8150   9.1159  11.8431  16.7798  26.9689
    29.3447  29.8586

          k = 0.4000-0.2000 0.4000 (   514 PWs)   bands (ev):

     6.4868   7.6631   7.8392   8.3305   8.7456  10.0152  20.1096  26.8802
    30.2310  31.6366

          k = 0.3000-0.1000 0.3000 (   526 PWs)   bands (ev):

     6.3478   7.4785   7.8856   7.9409   8.3966   9.0548  23.9485  27.2461
    31.6055  33.7224

          k = 0.2000 0.0000 0.2000 (   527 PWs)   bands (ev):

     5.6248   7.4598   7.8176   7.8404   8.3961   8.6642  27.9383  27.9639
    31.8011  33.6236

          k = 0.0000 0.4000 0.0000 (   524 PWs)   bands (ev):

     6.2366   7.1317   8.1635   8.1635   8.2762   8.7876  27.9368  27.9368
    29.2088  29.2303

          k =-0.1000 0.5000-0.1000 (   528 PWs)   bands (ev):

     6.6624   7.0117   8.0313   8.3094   8.9701   9.0973  24.4366  26.8465
    28.0460  29.3269

          k =-0.2000 0.6000-0.2000 (   517 PWs)   bands (ev):

     6.6515   7.2624   7.9235   8.2477   9.2331  10.7463  20.6288  26.1663
    26.3905  28.9706

          k = 0.7000-0.3000 0.7000 (   524 PWs)   bands (ev):

     6.6219   7.3373   8.0797   8.1361   9.3169  13.0042  17.2449  24.6048
    26.6869  28.8475

          k = 0.6000-0.2000 0.6000 (   522 PWs)   bands (ev):

     6.7127   7.3517   8.0729   8.1765   9.1197  13.8059  16.3920  23.5561
    27.7778  29.0582

          k = 0.5000-0.1000 0.5000 (   519 PWs)   bands (ev):

     6.9022   7.4351   7.9393   8.0987   8.7197  11.6830  19.5659  23.1171
    29.5654  29.7387

          k = 0.4000 0.0000 0.4000 (   525 PWs)   bands (ev):

     6.9947   7.2700   7.7993   8.1964   8.2976  10.0756  23.1734  23.3894
    30.9074  31.8355

          k = 0.0000 0.6000 0.0000 (   508 PWs)   bands (ev):

     6.5928   6.7132   8.7196   8.7196   9.0005   9.4356  25.4194  25.4194
    25.6633  28.9006

          k =-0.1000 0.7000-0.1000 (   519 PWs)   bands (ev):

     6.5221   6.6471   8.6587   8.7723   9.2401  11.0821  22.5718  23.5329
    24.6851  28.7979

          k = 0.8000-0.2000 0.8000 (   518 PWs)   bands (ev):

     6.5210   6.8504   8.3848   8.6573   9.3538  13.3957  19.2104  21.7719
    24.7916  28.7317

          k = 0.7000-0.1000 0.7000 (   515 PWs)   bands (ev):

     6.6797   7.1761   8.0265   8.5264   9.1789  15.9656  16.4586  20.4834
    25.7595  28.8224

          k = 0.6000-0.0000 0.6000 (   522 PWs)   bands (ev):

     6.9469   7.5417   7.5947   8.3707   8.8706  13.7244  19.1469  20.0457
    27.4375  29.1589

          k = 0.0000 0.8000 0.0000 (   508 PWs)   bands (ev):

     6.2958   6.3916   9.1766   9.2476   9.2476  11.9754  21.1742  23.6371
    23.6371  28.7007

          k = 0.9000-0.1000 0.9000 (   512 PWs)   bands (ev):

     6.2741   6.4050   9.1031   9.1268   9.4095  13.7535  19.4392  21.6100
    23.4649  28.6843

          k = 0.8000 0.0000 0.8000 (   510 PWs)   bands (ev):

     6.4254   6.7096   8.6058   8.9101   9.3119  15.6744  18.4802  19.0974
    24.2270  28.7040

          k = 0.0000-1.0000 0.0000 (   524 PWs)   bands (ev):

     6.1451   6.2725   9.2448   9.4739   9.4739  13.9743  18.5337  22.9810
    22.9810  28.6574

          k =-0.2000 0.4000 0.0000 (   527 PWs)   bands (ev):

     6.4981   7.1967   7.8459   8.1641   8.4475   9.0780  25.5555  25.7825
    30.5209  31.6295

          k =-0.3000 0.5000-0.1000 (   518 PWs)   bands (ev):

     6.7876   7.4680   7.6280   8.2057   8.7743  10.1338  21.7416  25.1530
    28.6008  31.5791

          k = 0.6000-0.4000 0.8000 (   517 PWs)   bands (ev):

     6.6650   7.4265   7.9490   8.1850   9.1186  11.9680  18.1663  25.1550
    26.9563  30.8574

          k = 0.5000-0.3000 0.7000 (   522 PWs)   bands (ev):

     6.6119   7.3475   7.9903   8.3249   9.2318  13.7832  15.7807  25.7183
    25.8172  30.5527

          k =-0.2000 0.6000 0.0000 (   521 PWs)   bands (ev):

     6.8297   6.8414   8.0118   8.7129   8.8950  10.3362  23.5802  23.7538
    25.9247  30.9058

          k = 0.7000-0.3000 0.9000 (   517 PWs)   bands (ev):

     6.7517   7.0568   7.8777   8.6276   9.1655  12.2786  20.0443  23.4469
    24.1201  30.8936

          k = 0.6000-0.2000 0.8000 (   523 PWs)   bands (ev):

     6.8163   7.1821   7.8496   8.4263   9.2518  14.7509  16.8586  22.5658
    24.0813  30.9363

          k = 0.5000-0.1000 0.7000 (   518 PWs)   bands (ev):

     7.0208   7.2143   7.7073   8.3881   9.0702  13.9661  17.9376  21.6730
    25.1918  31.4469

          k = 0.4000 0.0000 0.6000 (   520 PWs)   bands (ev):

     7.1882   7.3291   7.3841   8.5099   8.7243  11.7948  21.3295  21.4457
    26.7512  32.4075

          k = 0.8000-0.2000 1.0000 (   520 PWs)   bands (ev):

     6.5007   6.5613   8.5601   9.1006   9.2443  12.7868  21.2809  22.2322
    22.4049  30.4446

          k = 0.7000-0.1000 0.9000 (   510 PWs)   bands (ev):

     6.5741   6.7934   8.2708   8.8309   9.3729  15.1156  18.9937  20.0263
    22.6466  30.6689

          k = 0.6000 0.0000 0.8000 (   520 PWs)   bands (ev):

     6.7860   7.1702   7.8177   8.5941   9.2401  16.3226  17.5213  19.3190
    23.6884  30.9945

          k =-0.2000-1.0000 0.0000 (   512 PWs)   bands (ev):

     6.3416   6.4566   8.8909   9.0586   9.4742  14.8892  18.6203  21.6538
    21.8102  30.2979

          k = 0.6000-0.2000 1.0000 (   515 PWs)   bands (ev):

     6.9267   7.0576   7.6647   8.6921   9.2374  14.3846  19.8372  20.3238
    22.4177  33.8352

          k = 0.5000-0.1000 0.9000 (   514 PWs)   bands (ev):

     6.9131   7.2774   7.5019   8.5611   9.3625  16.9151  17.0333  20.5709
    21.4438  33.6584

          k =-0.4000-1.0000 0.0000 (   512 PWs)   bands (ev):

     6.7476   7.0013   7.8661   8.6660   9.4748  16.8839  18.8880  19.2702
    20.3989  33.6070

     the Fermi energy is    12.2727 ev

!    total energy              =     -73.63873260 Ry
     Harris-Foulkes estimate   =     -73.63873286 Ry
     estimated scf accuracy    <       0.00000039 Ry

     The total energy is the sum of the following terms:

     one-electron contribution =      -4.60677291 Ry
     hartree contribution      =      13.12382302 Ry
     xc contribution           =     -11.63080287 Ry
     ewald contribution        =     -70.52360986 Ry
     smearing contrib. (-TS)   =      -0.00136998 Ry

     convergence has been achieved in   5 iterations

     Forces acting on atoms (Ry/au):

     atom    1 type  1   force =     0.00000000    0.00000000    0.00000000

     Total force =     0.000000     Total SCF correction =     0.000000


     entering subroutine stress ...

          total   stress  (Ry/bohr**3)                   (kbar)     P=   -4.61
  -0.00003131   0.00000000   0.00000000         -4.61      0.00      0.00
   0.00000000  -0.00003131  -0.00000000          0.00     -4.61     -0.00
   0.00000000  -0.00000000  -0.00003131          0.00     -0.00     -4.61


     Writing output data file ag.save

     init_run     :      0.62s CPU      0.70s WALL (       1 calls)
     electrons    :      4.98s CPU      7.90s WALL (       1 calls)
     forces       :      0.06s CPU      0.06s WALL (       1 calls)
     stress       :      0.32s CPU      0.51s WALL (       1 calls)

     Called by init_run:
     wfcinit      :      0.23s CPU      0.27s WALL (       1 calls)
     potinit      :      0.01s CPU      0.01s WALL (       1 calls)

     Called by electrons:
     c_bands      :      4.05s CPU      6.68s WALL (       6 calls)
     sum_band     :      0.77s CPU      0.99s WALL (       6 calls)
     v_of_rho     :      0.06s CPU      0.10s WALL (       6 calls)
     newd         :      0.07s CPU      0.08s WALL (       6 calls)
     mix_rho      :      0.01s CPU      0.01s WALL (       6 calls)

     Called by c_bands:
     init_us_2    :      0.10s CPU      0.14s WALL (     705 calls)
     cegterg      :      3.95s CPU      6.55s WALL (     282 calls)

     Called by sum_band:
     sum_band:bec :      0.00s CPU      0.01s WALL (     282 calls)
     addusdens    :      0.09s CPU      0.09s WALL (       6 calls)

     Called by *egterg:
     h_psi        :      2.74s CPU      3.38s WALL (     946 calls)
     s_psi        :      0.04s CPU      0.05s WALL (     946 calls)
     g_psi        :      0.00s CPU      0.01s WALL (     617 calls)
     cdiaghg      :      1.19s CPU      3.08s WALL (     852 calls)

     Called by h_psi:
     h_psi:pot    :      2.73s CPU      3.36s WALL (     946 calls)
     h_psi:calbec :      0.04s CPU      0.06s WALL (     946 calls)
     vloc_psi     :      2.66s CPU      3.25s WALL (     946 calls)
     add_vuspsi   :      0.02s CPU      0.04s WALL (     946 calls)

     General routines
     calbec       :      0.16s CPU      0.17s WALL (    1463 calls)
     fft          :      0.09s CPU      0.09s WALL (      88 calls)
     fftw         :      3.00s CPU      3.69s WALL (   17586 calls)
     davcio       :      0.00s CPU      0.00s WALL (      47 calls)

     Parallel routines
     fft_scatter  :      0.39s CPU      0.49s WALL (   17674 calls)

     PWSCF        :     6.20s CPU         9.45s WALL


   This run was terminated on:  22:15:31  25Jan2017            

=------------------------------------------------------------------------------=
   JOB DONE.
=------------------------------------------------------------------------------=
